% Model:              complex_cond.mph
% Version:            COMSOL 5.4.0.346
% Date:               Sep 12 2019, 18:10
% Dimension:          2
% Nodes:              411
% Expressions:        1
% Description:        Electric potential
% Length unit:        m
% X                       Y                        V (V)
-0.4569906290409319       -0.45485944815819146     0.0038535981331713222
-0.5                      -0.5                     0
-0.4333333333333331       -0.5                     0
-0.5                      -0.43333333333333335     0
-0.3666666666666665       -0.5                     0
-0.40035868796231144      -0.44117400090615505     0.011053373117990565
-0.451261123909015        -0.3997899065514689      0.009644194985183022
-0.5                      -0.3666666666666667      0
-0.3314788998043374       -0.4460265761177463      0.016151877992049677
-0.2999999999999998       -0.5                     0
-0.4488013481432229       -0.33354201347692886     0.016762784569834852
-0.5                      -0.30000000000000004     0
-0.44691343573441633      -0.26625083344794775     0.024168842692304127
-0.5                      -0.2333333333333334      0
-0.2663674995142058       -0.4462172112033918      0.02101867660775213
-0.23333333333333317      -0.5                     0
-0.4458202425638853       -0.1989333653272125      0.031060584957827236
-0.5                      -0.16666666666666674     0
-0.4458052584285213       -0.13413692212465966     0.0362070662860945
-0.5                      -0.10000000000000009     0
-0.20024338390517027      -0.4457865626011668      0.025325355849479866
-0.16666666666666652      -0.5                     0
-0.44830112559212254      -0.07061686507887084     0.037899002136669975
-0.5                      -0.03333333333333344     0
-0.13352243471719777      -0.4431706042585785      0.029660171008581728
-0.09999999999999987      -0.5                     0
-0.446870503055223        -0.004856861356262059    0.04026641286840026
-0.5                      0.033333333333333215     0
-0.033333333333333215     -0.5                     0
-0.06653887676324945      -0.4419552950844389      0.031812024276441246
-0.44353292379807097      0.0636968860427621       0.04147343977170089
-0.5                      0.09999999999999987      0
4.862086955314977E-4      -0.4441304915953243      0.030237314440132824
0.03333333333333344       -0.5                     0
-0.44402698637697285      0.13132282342841486      0.037451006897644884
-0.5                      0.16666666666666652      0
0.0679778022729646        -0.4506440790917424      0.02480150616497537
0.10000000000000009       -0.5                     0
-0.44512980188999335      0.1997354329717107       0.031263531273107374
-0.5                      0.23333333333333317      0
-0.1926015740696578       -0.05389465340727337     0.23479476988424247
-0.22301273767216406      -0.08330641980592893     0.1972011771770115
-0.17263966801955136      -0.10097299156754294     0.23186035064208116
-0.19333403452706052      -0.13661933342538646     0.19500722667882017
-0.14139597792859387      -0.14144672999266045     0.2266083624551966
-0.15265203334309335      -0.18412319430420052     0.1868322971192202
-0.10091102776719266      -0.17267589430771416     0.21936176009745537
-0.09933637420604974      -0.217384757444821       0.17896573913158975
-0.053860551257160334     -0.19261111343397297     0.2109948284289154
0                         -0.2                     0.2021336974126541
-0.026528568058187724     -0.24719525125165123     0.16044123852593475
0.13475529241722506       -0.45040912578517145     0.02184477394626815
0.16666666666666674       -0.5                     0
0.20148090225808368       -0.44884226829647494     0.018594015911607115
0.2333333333333334        -0.5                     0
-0.446388541782161        0.265760656783191        0.024355969702564807
-0.5                      0.2999999999999998       0
-0.4478648467489751       0.3296224593255381       0.017386104947664464
-0.5                      0.3666666666666665       0
-0.2                      0                        0.2354819659914313
-0.2372618384163287       -0.01396395492312974     0.19877583514458072
-0.2421109787232288       0.03298813310029183      0.19239461473987315
-0.19261111343397297      0.053860551257160334     0.2338738555962226
0.026575699369981182      -0.24272981842746405     0.158203553723369
0.05389465340727337       -0.1926015740696578      0.19429069495262755
0.26773956640777463       -0.44828996578516017     0.014493554603418878
0.30000000000000004       -0.5                     0
0.3340309845680552        -0.44933969091321097     0.00995182235350251
0.3666666666666667        -0.5                     0
-0.43937427278149493      0.399967019619463        0.011800584095148035
-0.5                      0.4333333333333331       0
-0.4540683251098299       0.45704668279519955      0.0038900679991173788
-0.5                      0.5                      0
-0.17267589430771416      0.10091102776719266      0.23035810099081874
-0.2116087924930951       0.1040295148137527       0.19723521899806573
0.09100591112077848       -0.21314870388568571     0.1619783231188716
0.10097299156754294       -0.17263966801955136     0.1881228037689831
0.3997278026809883        -0.451118206381969       0.0056671936148324255
0.43333333333333335       -0.5                     0
0.45489167236093236       -0.4568299153396307      0.0022072867996956666
0.5                       -0.5                     0
-0.43333333333333335      0.5                      0
-0.14144672999266045      0.14139597792859387      0.22494920829482723
-0.1964719848760718       0.14384913819899495      0.18770712513992474
0.14595093162029107       -0.1864776949371919      0.15297934217436185
0.14144672999266045       -0.14139597792859387     0.1830703180163006
0.5                       -0.4333333333333331      0
-0.39763401943432103      0.45193306102320163      0.009218882573074861
-0.3666666666666667       0.5                      0
-0.10097299156754294      0.17263966801955136      0.21806488577633806
-0.14087032681682365      0.1934658082189928       0.18390649061140826
0.1784050648399127        -0.15947967654284592     0.14816027768088558
0.17267589430771416       -0.10091102776719266     0.17913358433866744
0.5                       -0.3666666666666665      0
0.44139722579034035       -0.39969803698285106     0.0066879355337043835
-0.33224217837681835      0.447514891072627        0.015585926620492851
-0.30000000000000004      0.5                      0
-0.05389465340727337      0.1926015740696578       0.2104250447255822
-0.08424859821981484      0.22165526214245523      0.1778738491301082
0.19261111343397297       -0.053860551257160334    0.17660490113196312
0.22483046064127757       -0.09472146389923614     0.14022063365847817
0.44581649880026425       -0.33044700585001047     0.010387997906297809
0.5                       -0.2999999999999998      0
-0.2639368502684706       0.44574137737320557      0.02130152714699333
-0.2333333333333334       0.5                      0
0                         0.2                      0.2024024482010129
-0.013954838186375556     0.23977509821366363      0.16621976701210364
0.23914912041015493       -0.04373683827083085     0.13917296761139072
0.2                       0                        0.17585093904779825
0.44587194324105006       -0.26647486758301925     0.014129669764905732
0.5                       -0.23333333333333317     0
-0.16666666666666674      0.5                      0
-0.19595214919341908      0.4445037833925321       0.02608863465826154
0.053860551257160334      0.19261111343397297      0.19520994928593974
0.040622083223554185      0.2425346611551807       0.1558113327045151
0.23978919929510614       0.013954780696591585     0.14118986424665356
0.1926015740696578        0.05389465340727337      0.17725234144526442
0.4462569192993046        -0.20090986726075358     0.01752657785525291
0.5                       -0.16666666666666652     0
-0.10000000000000009      0.5                      0
-0.1300373264505396       0.44418186441572294      0.029183967940462758
0.10091102776719266       0.17267589430771416      0.18937830771892103
0.09444212096489187       0.22588327473125128      0.15207189547970681
0.14139597792859387       0.14144672999266045      0.18438362891313198
0.16250292823704923       0.17961263177444906      0.14840716597681755
0.17263966801955136       0.10097299156754294      0.18022912508088632
0.19353159352402732       0.14880383692047633      0.14415196175478673
0.22228224345245645       0.0843470371165875       0.14526582140857275
0.4466528376782144        -0.13426838264425808     0.020313735819558015
0.5                       -0.09999999999999987     0
-0.0655676985515166       0.44522396295644073      0.029980866228354646
-0.03333333333333344      0.5                      0
0.4449495393109073        -0.06814348323345532     0.02300052374722712
0.5                       -0.033333333333333215    0
-5.592103275092129E-4     0.44429033307307425      0.030188107976396972
0.033333333333333215      0.5                      0
0.4455708028526743        -0.0021862155361683676   0.023478912785836886
0.5                       0.03333333333333344      0
0.06526101511739692       0.4441173132367611       0.02828973538372991
0.09999999999999987       0.5                      0
0.4456390012842293        0.06468468573637634      0.022807140579577233
0.5                       0.10000000000000009      0
0.13149853798549377       0.4451724673653172       0.024437725090523322
0.16666666666666652       0.5                      0
0.44428787638302597       0.1315001360191897       0.02140362663709026
0.5                       0.16666666666666674      0
0.19825296952914231       0.44629788615213983      0.019810853624645675
0.23333333333333317       0.5                      0
0.44500334434893          0.19866331270241724      0.018122074376939846
0.5                       0.2333333333333334       0
0.26378658590119997       0.44635280668913874      0.015370696912049358
0.2999999999999998        0.5                      0
0.4459334115237014        0.26554512785257545      0.014221071183541503
0.5                       0.30000000000000004      0
0.3268320353331194        0.44654592655998593      0.011029798087714043
0.3666666666666665        0.5                      0
0.44757062038037226       0.3328220264068815       0.00994714806551908
0.5                       0.3666666666666667       0
0.3973947358179041        0.4397197554834552       0.007187768796858735
0.4333333333333331        0.5                      0
0.4496914700702208        0.39874548454523095      0.005801936529082274
0.5                       0.43333333333333335      0
0.456099372984868         0.454326925902773        0.0022810598083559197
0.5                       0.5                      0
-0.354133072742545        -0.39653292134258294     0.027406191738581255
-0.40071836746791867      -0.3695986115348313      0.024458270005445204
-0.2988263845798319       -0.39321699544939714     0.03724737137396918
-0.33928299374227366      -0.3326484327389249      0.04847811641927115
-0.39379895938177056      -0.2987372615749452      0.040107074525304764
-0.39136686790772535      -0.2299700168208325      0.054386827091679794
-0.2675314406753731       -0.34559292870593933     0.06111312573317099
-0.29026312229045514      -0.2946068734043056      0.07531978783572714
-0.23416440100025648      -0.39228390258779755     0.04679552505230767
-0.388931429346166        -0.1626707424224786      0.06748633127322125
-0.39220110365475713      -0.10405498143194816     0.07350388648735158
-0.3333322114528711       -0.2598094222365176      0.07201701274021459
-0.33940491447884125      -0.19341845551715364     0.08795652232541736
-0.24710212798811598      -0.30320196545656825     0.08429117986595654
-0.28386891446625184      -0.25521070580836885     0.09264674716235458
-0.2593582847885101       -0.27145177276715293     0.09471450252038374
-0.2045968960568861       -0.33244707719813704     0.0800355061335561
-0.167486027644948        -0.3898760451682989      0.05555031671822904
-0.39747497357194783      -0.04141303465317503     0.07483098569280344
-0.3530341325946345       -0.06809680900804063     0.10376337679833067
-0.32218607187695947      -0.12244225223954879     0.1153785951311256
-0.3470061330602633       -0.022683595103715076    0.11139825006336614
-0.2953397079027802       -0.21407420979109243     0.10316892704471385
-0.28612152610790226      -0.17053262959289145     0.12323264279964728
-0.2117914622445105       -0.2720605332916373      0.10966076521925927
-0.24732505315874936      -0.2377030689576381      0.11429919397181988
-0.1404526884144882       -0.33661636064502143     0.08815286666132192
-0.15999174297447297      -0.28960144375469304     0.1131026018037895
-0.10019905560788404      -0.381404913346839       0.06532696120000682
-0.0964963512745035       -0.32960337595924083     0.0971026492944405
-0.06400437490534694      -0.3450022406486385      0.08898963606801022
-0.3867328428629449       0.025401988410530724     0.0829537189491485
-0.2690058495552653       -0.13193620204732043     0.1467998765637423
-0.30484368961868213      -0.05658995207988422     0.13943556076649147
-0.2733139902010585       -0.09582808500583917     0.15480047999940474
-0.30866454133788834      -0.012588138936789235    0.14007158854896642
-0.326329472150017        0.020517130828065715     0.12648883112465745
-0.34364358981158705      0.06032454921385601      0.11093878393901835
-0.24070306257138996      -0.1945044306411637      0.13744750250497237
-0.2347757735087358       -0.15359695044519336     0.15973437784513697
-0.16531606467639384      -0.25040253480252095     0.13628561911907605
-0.19073907394536194      -0.2202394662013769      0.14621976491350908
-0.11109104756063908      -0.2921886660865635      0.12017332212908514
-0.1251775345247463       -0.25345152941431404     0.14475157698175886
-0.05755846177984153      -0.2988284325065858      0.12019642007719934
-0.030243154505483632     -0.3345011948461243      0.09598390726649907
-0.03266464561661334      -0.3830257613058918      0.06573794590174266
0.001976703351593231      -0.34770049688944343     0.08624287460479282
-0.3827334166250984       0.09799194379647416      0.08020751547639614
-0.2276803422473059       -0.11704333038286857     0.18057066686073353
-0.2789492365448969       -0.02312387627498101     0.16277579893080976
-0.250751721715074        -0.0513669079902757      0.1824681262325458
-0.3293717086352422       0.09701369269769929      0.11549478466578109
-0.27876949507488424      0.01236308971395111      0.16337850236741394
-0.29316023075253456      0.06028489167056074      0.1472808007793309
-0.18991724080481023      -0.17088025885879005     0.1767082303967362
-0.13888050969287727      -0.2166597013505834      0.1680169283451867
-0.07633259423758156      -0.25013487115983757     0.15577204241856532
0.0020759936849052097     -0.2990551900680061      0.11856690429867899
0.03732529713663925       -0.3343085373911037      0.09165902474527764
0.03421041216385137       -0.3884098631373658      0.05990317006850886
0.06298478777493484       -0.28812340107966783     0.11739501998350833
-0.3397656311290982       0.14030768807024446      0.10022774992572951
-0.38925803570660755      0.16736438774056436      0.06632559347068424
-0.29310185039970194      0.11452713617101384      0.13574089800811173
-0.24898437757514444      0.08175296119938358      0.17625029233314457
0.06875364402320516       -0.23765245536937146     0.15158326082243023
0.0853785887079116        -0.3482537357810353      0.0771724232375474
0.10632306197844787       -0.4012479012230873      0.046969029439654246
0.10942193373727298       -0.25194197896691034     0.1285823660920429
0.11783013090468028       -0.3096641485760748      0.09244798284101975
-0.2955971535780566       0.1582249888528356       0.12144940620952571
-0.3295653986790982       0.20248508795591139      0.09009082836903237
-0.39110524747421865      0.23396472987809439      0.053557390837747736
-0.24878170722768891      0.14102619385383816      0.15569950096154642
0.12158073599863388       -0.21078817109284992     0.15020519547804612
0.14481901610424996       -0.35699554821741386     0.0631679166154362
0.17103153704917107       -0.3986490372676204      0.04095865205294826
0.1507134923344126        -0.2298415310345686      0.12601932827576426
0.1529543133280685        -0.2746748286392752      0.10148102107468775
0.16074728842948732       -0.31472387429910126     0.07973412595596083
0.2355897362610294        -0.3957691883278229      0.0336957045948465
-0.27047042417214967      0.19545711852373507      0.12164223317097163
-0.22544027664213817      0.1894818066557764       0.14682617791333788
-0.2920072927403554       0.24591853402222152      0.09261440013068976
-0.3913438563969903       0.297702305496253        0.04100862310794206
-0.34452030732526673      0.27099373498953516      0.0642517467048081
-0.3969301918560937       0.35119624146459155      0.0287784194603276
0.1826494707442764        -0.20503996009300918     0.12416466395946267
0.20179537207262305       -0.3403046942912597      0.05941267236263443
0.19172356857793285       -0.2501265524781751      0.0997320253736831
0.18743344874189455       -0.2917099092362822      0.08299284224881161
0.30200677972712886       -0.39578819472793625     0.02475616876276905
0.2700864248849443        -0.34299446208480106     0.044070777600452644
0.3680470653206314        -0.4008415799472912      0.015314127627364298
-0.1788785085931339       0.18625030817481592      0.1718012982626075
-0.2444846641773209       0.23890915917725689      0.11434687528415462
-0.20468441537935642      0.22741583893345557      0.13585307187278328
-0.297266292036113        0.2912956730153905       0.07404871006947829
-0.26048153398146645      0.2772971403464604       0.09141511783047025
-0.3308928787750285       0.33677654428770043      0.04922842417590613
-0.36604543110280097      0.3963906508002097       0.02535676080542783
0.20999474811067187       -0.1822722407797875      0.12007591010168703
0.2247948500449287        -0.2212378671810554      0.09807909721942772
0.24286015303758463       -0.2812908406057756      0.0702478067474665
0.29748983859585626       -0.2987576247527829      0.0493632495475893
0.3365469009203382        -0.33749428130933107     0.03152694187907069
0.3963447649119678        -0.35180114868417245     0.017760542216951673
-0.1185288382439319       0.22448473778426417      0.16749806567922274
-0.16429388899601832      0.24132417165661854      0.1418191874454726
-0.21032473848817074      0.2811137490028103       0.10487029384962122
-0.2578311947631549       0.3297504569687235       0.06963177227831863
-0.29620318570359294      0.39134198815948196      0.038175676328823356
0.21771261426386204       -0.14078115775130057     0.13103796456614467
0.24540887906344508       -0.17894253821887857     0.10288569314720945
0.25708605877002105       -0.1357217202522552      0.1088069612608228
0.2706733180547632        -0.2220396103697881      0.07867621483022126
0.2971790090133948        -0.25679120654215315     0.05981014547297612
0.34243794502044655       -0.2720418295442224      0.042406972258560584
0.3912851933525168        -0.29804139181066097     0.02533220810064195
-0.09447717392345127      0.268212954988186        0.139087175322577
-0.13388590757565444      0.27084572494110326      0.13026183627989452
-0.16195579926108106      0.2923296507327878       0.110620040640288
-0.18425396553489595      0.339287547201239        0.07985925743201895
-0.22575730725758433      0.3891560761559432       0.04912743816682002
-0.05400870583384483      0.24901903138276477      0.15833470781145528
0.26974796266194045       -0.09331748809667717     0.11031194979055615
0.2914675400727762        -0.1693606901893403      0.08279922504612902
0.2920235512733874        -0.12641354995838366     0.0913059138781086
0.3321342148707488        -0.20893976387432733     0.057409205010651713
0.39187304799421424       -0.23611760724335715     0.032494931388936395
-0.06463798377911985      0.2963447723339811       0.12149998849512637
-0.12032610607186292      0.32262481306987684      0.09890149509326329
-0.1563664980819724       0.38431130384047696      0.05939827594120145
-0.03153020013904255      0.2796350324122788       0.13451650042889443
0.30879072187834955       -0.09750766082694187     0.08673135047908932
0.2991749130393184        -0.058547102234899714    0.09678040674672637
0.3381478705816524        -0.13624228408395608     0.06646059955908447
0.39316077335799404       -0.16998511914747405     0.03895717093878378
-0.030773644770066683     0.3106297024525838       0.11205375613143143
-0.057853441790419124     0.3452037210737191       0.08892966034101048
-0.0956709462096628       0.39105213630488755      0.05984897915066784
0.007126749911518991      0.2911977342679634       0.12384840621131946
0.29150123554903856       -0.007893486793503083    0.10444736646145289
0.3421835829949814        -0.0827433806103654      0.07047651051212693
0.33167459881327577       -0.03594048259106953     0.07933433433430202
0.3935977383240675        -0.1036174951784719      0.04411270596375414
-0.006973348053270883     0.34076725217497633      0.09117039873834769
-0.033805351620035944     0.3918194305544247       0.06051436786785496
0.03408398661168502       0.32774375169747116      0.09630839248300371
0.0579065028104002        0.2975447000543251       0.1124497038895305
0.09147146688826223       0.27078011441561517      0.12247532001211738
0.25086024244742633       0.05310014174361406      0.12960241895740662
0.279445795796429         0.031653039333617614     0.11158341679438648
0.22614910312952546       0.12137495032262295      0.13247468392567305
0.3116762975707258        0.0311090048836384       0.0912359269539748
0.3429684979908441        0.006037674985652589     0.07381932304260098
0.3825447644921963        -0.03655611830223205     0.05256080755915638
0.030756913297212057      0.3845812113476105       0.06239497875309568
0.0775871944935595        0.34435345120784         0.0807021249381553
0.09654753568007154       0.3086584894245641       0.09800977719465033
0.14327913665094594       0.2186296886332272       0.13628591182791516
0.1361373287076026        0.2581850327682418       0.11636286761804636
0.1245805480073144        0.29379007555888303      0.09990367910998525
0.18414056302629916       0.21251625072552843      0.12059648765862785
0.21143756654673107       0.18538793219111815      0.11871530674993637
0.24114131949889375       0.1545037792280118       0.11321881138071781
0.26882932895819667       0.09264075921432233      0.11136280095389157
0.29736098697945723       0.0662276110162322       0.09732345319627689
0.2678563310592009        0.129939811116154        0.10442735846980096
0.34710497153785985       0.05952018587619268      0.06975551495982744
0.3973355664859648        0.03162748627896416      0.045514893350578754
0.09816006108444646       0.39190524814008365      0.0526033430449224
0.13119196620082135       0.33682410588615735      0.07570374299666964
0.18022287203649143       0.24919275329956214      0.10500723511179018
0.16724031332311315       0.2957422556815771       0.08732974757175466
0.2240371457426546        0.2296179032831388       0.09575977933066754
0.2671468788878567        0.1999053504115383       0.08677759679048869
0.2852636588509349        0.16008428589841725      0.08824880441296468
0.32115333261119244       0.12022077009233345      0.07726352927362275
0.38828172859216326       0.09647993870721155      0.04708512704236617
0.16449157289078356       0.3922312689594268       0.0446410619765955
0.19762788527549355       0.3399308712843953       0.060695386347697146
0.22910068224070854       0.2817772358450167       0.07468767110669607
0.28455926651687163       0.24669040577035703      0.06701500316442822
0.3283774883894406        0.1941924544426589       0.06180310661660969
0.38680318407283326       0.16250621230246634      0.04233573994515653
0.23025108822904425       0.39310895739362384      0.03545136764422432
0.2637888310090831        0.33973012211945147      0.04655571074864737
0.290964573465323         0.29483451964199336      0.05236992962977517
0.3406155794046201        0.2687210050630372       0.04373781439124692
0.39361525944408166       0.23323202792037448      0.03238484837015574
0.29415396204389177       0.39144539353000335      0.027006049081642964
0.33146753009789426       0.33630395141599034      0.032962480876100986
0.39271441534814167       0.30037138968952265      0.024802650248148896
0.3478284364756763        0.39559999220226627      0.01882091284538191
0.39708409123818045       0.3656041994782763       0.016063183258709177
-0.12822341901701012      -0.0988029753601465      0.22439108435904814
-0.1398840634641124       -0.05880452163447115     0.2262132151956742
-0.15882144660810082      -0.02149128751119459     0.22906114397810678
-0.09246458453698735      -0.12209222259447866     0.2183970864759297
-0.06272671095704488      -0.15106469050182492     0.2132109131828607
-0.019717288075604956     -0.15391694517232485     0.20625360112420135
0.02081803301069729       -0.16211170949435333     0.19985873801596213
-0.1503844421095864       0.02131130112993673      0.22743102530509815
-0.14746467500984545      0.0634572137960323       0.22665731386834223
0.05273940310431175       -0.14579870259956362     0.19543816466652775
-0.12131946141279393      0.09358166444483978      0.22228653157736353
0.09239191560389115       -0.12586814952973013     0.19004909776006548
-0.09676432011811711      0.12880514345420863      0.21806152673330498
0.1246149630558356        -0.09726942190527554     0.1858222675562519
-0.05955497144550131      0.1425975886385108       0.21216841461928235
0.15066358977779404       -0.06642391231578706     0.1824017160060645
-0.021353793787486003     0.16120461300666888      0.2062012016970171
0.15338698374215978       -0.02604745697482463     0.18224391247468893
0.020741726356162744      0.15121225571199856      0.20034870468353397
0.159325867209345         0.013896430332536461     0.1816106866766202
0.14032181369014682       0.053351628128389256     0.18439913179564252
0.12713378140060158       0.09281586205677919      0.18625792794711685
0.09236237404755944       0.11662722608486209      0.19087557951803022
0.061975895795117905      0.14637490522795102      0.19474404899841408
-0.08312738599789628      -0.0636512051541879      0.2170892773164838
-0.1032335641242615       -0.014636118552433134    0.22019524777278482
-0.03801551166021061      -0.10489345822304715     0.20975908741075106
0.017173396617506297      -0.1182413256302204      0.2011212666276723
0.0571683124927294        -0.11226416816436502     0.19527592581479605
-0.03244376511711501      -0.05628644718751527     0.2091781168335753
-0.04838394040555979      -0.01960414122964189     0.21167470494212112
-0.06236468499297519      0.01678093784479162      0.21373080114555548
-0.10017585348133769      0.046677447790055476     0.21939101038987704
-0.05283226329941373      0.050248733652143475     0.21210719091369296
0.007302285976418815      -0.0691654592353528      0.20306678373481765
0.04322366718809669       -0.08559877311237606     0.197596343681435
0.08034846968067734       -0.08589284345316728     0.1921992775356167
0.0016349679801537812     -0.025243551683049745    0.20409226726760066
-0.010673210283926156     0.025633106103007456     0.20589707159128293
-0.06550276679032982      0.0929857909482785       0.21368060073744188
-0.025655618909397604     0.06948649650332793      0.2079019704271941
0.054135035051573         -0.04252573042869333     0.19629098919381296
0.1113745233914028        -0.05251894204109184     0.18802020472170392
0.04764734232429686       0.010633046707398758     0.1973725711972295
0.03707455316792359       0.04966865609501149      0.19884774188564708
0.006912281937558003      0.0695315154735757       0.20311593023702784
-0.012744664291807872     0.10964066127602995      0.20564799300447284
0.10634680864044405       0.0026222334325549917    0.18898517339929063
0.0835213334787186        0.056209516792449093     0.19225655315160384
0.04200379954751439       0.09874803660120723      0.1979067315467675
