% Model:              complex_bc.mph
% Version:            COMSOL 5.4.0.346
% Date:               Sep 12 2019, 18:10
% Dimension:          2
% Nodes:              411
% Expressions:        1
% Description:        Electric potential
% Length unit:        m
% X                       Y                        V (V)
-0.4569906290409319       -0.45485944815819146     -7.815782284287363E-4
-0.5                      -0.5                     0
-0.4333333333333331       -0.5                     0
-0.5                      -0.43333333333333335     0
-0.3666666666666665       -0.5                     0
-0.40035868796231144      -0.44117400090615505     -0.002325488592825682
-0.451261123909015        -0.3997899065514689      -0.0019962015857787323
-0.5                      -0.3666666666666667      0
-0.3314788998043374       -0.4460265761177463      -0.003430690008294608
-0.2999999999999998       -0.5                     0
-0.4488013481432229       -0.33354201347692886     -0.0035843835999428662
-0.5                      -0.30000000000000004     0
-0.44691343573441633      -0.26625083344794775     -0.005358930921440067
-0.5                      -0.2333333333333334      0
-0.2663674995142058       -0.4462172112033918      -0.004317456425437357
-0.23333333333333317      -0.5                     0
-0.4458202425638853       -0.1989333653272125      -0.007082641326388348
-0.5                      -0.16666666666666674     0
-0.4458052584285213       -0.13413692212465966     -0.008330932868420042
-0.5                      -0.10000000000000009     0
-0.20024338390517027      -0.4457865626011668      -0.004679712200475136
-0.16666666666666652      -0.5                     0
-0.44830112559212254      -0.07061686507887084     -0.008580592842996733
-0.5                      -0.03333333333333344     0
-0.13352243471719777      -0.4431706042585785      -0.004301111863722381
-0.09999999999999987      -0.5                     0
-0.446870503055223        -0.004856861356262059    -0.00877211488583825
-0.5                      0.033333333333333215     0
-0.033333333333333215     -0.5                     0
-0.06653887676324945      -0.4419552950844389      -0.002609721718517567
-0.44353292379807097      0.0636968860427621       -0.0084656523435636
-0.5                      0.09999999999999987      0
4.862086955314977E-4      -0.4441304915953243      1.8000775594915312E-5
0.03333333333333344       -0.5                     0
-0.44402698637697285      0.13132282342841486      -0.006996605207355234
-0.5                      0.16666666666666652      0
0.0679778022729646        -0.4506440790917424      0.0022377270114729985
0.10000000000000009       -0.5                     0
-0.44512980188999335      0.1997354329717107       -0.005278155554521931
-0.5                      0.23333333333333317      0
-0.1926015740696578       -0.05389465340727337     -0.07449709124203568
-0.22301273767216406      -0.08330641980592893     -0.0597582843522814
-0.17263966801955136      -0.10097299156754294     -0.07696583483235511
-0.19333403452706052      -0.13661933342538646     -0.060447189981237145
-0.14139597792859387      -0.14144672999266045     -0.0750826483550364
-0.15265203334309335      -0.18412319430420052     -0.0549195706983002
-0.10091102776719266      -0.17267589430771416     -0.06694627772721755
-0.09933637420604974      -0.217384757444821       -0.04337132231681563
-0.053860551257160334     -0.19261111343397297     -0.04903973005927987
0                         -0.2                     -1.6893914864507336E-4
-0.026528568058187724     -0.24719525125165123     -0.012719726194232324
0.13475529241722506       -0.45040912578517145     0.003742747181807022
0.16666666666666674       -0.5                     0
0.20148090225808368       -0.44884226829647494     0.004405651609368438
0.2333333333333334        -0.5                     0
-0.446388541782161        0.265760656783191        -0.003729548391792377
-0.5                      0.2999999999999998       0
-0.4478648467489751       0.3296224593255381       -0.0024474188040385252
-0.5                      0.3666666666666665       0
-0.2                      0                        -0.0684346204892874
-0.2372618384163287       -0.01396395492312974     -0.05579410934534582
-0.2421109787232288       0.03298813310029183      -0.049578086259751956
-0.19261111343397297      0.053860551257160334     -0.059774811655084976
0.026575699369981182      -0.24272981842746405     0.01368521114285197
0.05389465340727337       -0.1926015740696578      0.04892788092715516
0.26773956640777463       -0.44828996578516017     0.004132748519345698
0.30000000000000004       -0.5                     0
0.3340309845680552        -0.44933969091321097     0.0031753851194093806
0.3666666666666667        -0.5                     0
-0.43937427278149493      0.399967019619463        -0.0015568683702257646
-0.5                      0.4333333333333331       0
-0.4540683251098299       0.45704668279519955      -4.932764499241325E-4
-0.5                      0.5                      0
-0.17267589430771416      0.10091102776719266      -0.049888808828094516
-0.2116087924930951       0.1040295148137527       -0.0430425683887841
0.09100591112077848       -0.21314870388568571     0.04448231229000633
0.10097299156754294       -0.17263966801955136     0.06696128347648687
0.3997278026809883        -0.451118206381969       0.001938471252865112
0.43333333333333335       -0.5                     0
0.45489167236093236       -0.4568299153396307      7.831199664716968E-4
0.5                       -0.5                     0
-0.43333333333333335      0.5                      0
-0.14144672999266045      0.14139597792859387      -0.038709776425441204
-0.1964719848760718       0.14384913819899495      -0.03568654081854123
0.14595093162029107       -0.1864776949371919      0.05500010585620845
0.14144672999266045       -0.14139597792859387     0.07508896144273491
0.5                       -0.4333333333333331      0
-0.39763401943432103      0.45193306102320163      -0.0011911337007255772
-0.3666666666666667       0.5                      0
-0.10097299156754294      0.17263966801955136      -0.02659755962422037
-0.14087032681682365      0.1934658082189928       -0.02533846131872327
0.1784050648399127        -0.15947967654284592     0.05817224473367122
0.17267589430771416       -0.10091102776719266     0.07696593696256329
0.5                       -0.3666666666666665      0
0.44139722579034035       -0.39969803698285106     0.002398061797251532
-0.33224217837681835      0.447514891072627        -0.001972514510252982
-0.30000000000000004      0.5                      0
-0.05389465340727337      0.1926015740696578       -0.0138716120071254
-0.08424859821981484      0.22165526214245523      -0.015053935780238833
0.19261111343397297       -0.053860551257160334    0.0744979452433289
0.22483046064127757       -0.09472146389923614     0.0578977125850191
0.44581649880026425       -0.33044700585001047     0.0038688874620622297
0.5                       -0.2999999999999998      0
-0.2639368502684706       0.44574137737320557      -0.002481515395986559
-0.2333333333333334       0.5                      0
0                         0.2                      1.6894126795187755E-6
-0.013954838186375556     0.23977509821366363      -0.002383764271810928
0.23914912041015493       -0.04373683827083085     0.056012053764292864
0.2                       0                        0.06843548255458497
0.44587194324105006       -0.26647486758301925     0.005458728359331769
0.5                       -0.23333333333333317     0
-0.16666666666666674      0.5                      0
-0.19595214919341908      0.4445037833925321       -0.0025620944773510207
0.053860551257160334      0.19261111343397297      0.013864227260879764
0.040622083223554185      0.2425346611551807       0.006593485082884826
0.23978919929510614       0.013954780696591585     0.05258207609951469
0.1926015740696578        0.05389465340727337      0.059774440526390187
0.4462569192993046        -0.20090986726075358     0.00698083592345963
0.5                       -0.16666666666666652     0
-0.10000000000000009      0.5                      0
-0.1300373264505396       0.44418186441572294      -0.0021060045156929
0.10091102776719266       0.17267589430771416      0.02658169286180179
0.09444212096489187       0.22588327473125128      0.01571754655064161
0.14139597792859387       0.14144672999266045      0.03869369634977609
0.16250292823704923       0.17961263177444906      0.028860578569654596
0.17263966801955136       0.10097299156754294      0.049872573011387346
0.19353159352402732       0.14880383692047633      0.03478323712055396
0.22228224345245645       0.0843470371165875       0.04541892737960492
0.4466528376782144        -0.13426838264425808     0.008197242608633528
0.5                       -0.09999999999999987     0
-0.0655676985515166       0.44522396295644073      -0.0011773551056852005
-0.03333333333333344      0.5                      0
0.4449495393109073        -0.06814348323345532     0.009160219074382777
0.5                       -0.033333333333333215    0
-5.592103275092129E-4     0.44429033307307425      -1.0670588374871261E-5
0.033333333333333215      0.5                      0
0.4455708028526743        -0.0021862155361683676   0.008972367879446573
0.5                       0.03333333333333344      0
0.06526101511739692       0.4441173132367611       0.0011972899720556014
0.09999999999999987       0.5                      0
0.4456390012842293        0.06468468573637634      0.008128724617466084
0.5                       0.10000000000000009      0
0.13149853798549377       0.4451724673653172       0.002082963778479399
0.16666666666666652       0.5                      0
0.44428787638302597       0.1315001360191897       0.006960034844541485
0.5                       0.16666666666666674      0
0.19825296952914231       0.44629788615213983      0.0024832091914477636
0.23333333333333317       0.5                      0
0.44500334434893          0.19866331270241724      0.0053151275383669415
0.5                       0.2333333333333334       0
0.26378658590119997       0.44635280668913874      0.0024528747921032774
0.2999999999999998        0.5                      0
0.4459334115237014        0.26554512785257545      0.003765163677469582
0.5                       0.30000000000000004      0
0.3268320353331194        0.44654592655998593      0.002056304323902984
0.3666666666666665        0.5                      0
0.44757062038037226       0.3328220264068815       0.0024061240121347385
0.5                       0.3666666666666667       0
0.3973947358179041        0.4397197554834552       0.0015058653424971547
0.4333333333333331        0.5                      0
0.4496914700702208        0.39874548454523095      0.0013144726849695703
0.5                       0.43333333333333335      0
0.456099372984868         0.454326925902773        5.024824506455833E-4
0.5                       0.5                      0
-0.354133072742545        -0.39653292134258294     -0.005951385343163124
-0.40071836746791867      -0.3695986115348313      -0.005300991771361113
-0.2988263845798319       -0.39321699544939714     -0.008071601780706483
-0.33928299374227366      -0.3326484327389249      -0.011026013873668849
-0.39379895938177056      -0.2987372615749452      -0.009103149506056027
-0.39136686790772535      -0.2299700168208325      -0.012873414129638256
-0.2675314406753731       -0.34559292870593933     -0.013665642742301786
-0.29026312229045514      -0.2946068734043056      -0.017920350975603322
-0.23416440100025648      -0.39228390258779755     -0.009645904432122843
-0.388931429346166        -0.1626707424224786      -0.0164160547952087
-0.39220110365475713      -0.10405498143194816     -0.01784016253738575
-0.3333322114528711       -0.2598094222365176      -0.017439241584980992
-0.33940491447884125      -0.19341845551715364     -0.02220040990820726
-0.24710212798811598      -0.30320196545656825     -0.01972814110063269
-0.28386891446625184      -0.25521070580836885     -0.023077540733812296
-0.2593582847885101       -0.27145177276715293     -0.023240611997366063
-0.2045968960568861       -0.33244707719813704     -0.017192219187374538
-0.167486027644948        -0.3898760451682989      -0.009938795068960489
-0.39747497357194783      -0.04141303465317503     -0.017618109705967253
-0.3530341325946345       -0.06809680900804063     -0.026054945506675097
-0.32218607187695947      -0.12244225223954879     -0.030361621351346256
-0.3470061330602633       -0.022683595103715076    -0.02737810313231952
-0.2953397079027802       -0.21407420979109243     -0.02662495044379921
-0.28612152610790226      -0.17053262959289145     -0.03318744812418173
-0.2117914622445105       -0.2720605332916373      -0.026573871044596818
-0.24732505315874936      -0.2377030689576381      -0.029461746739856468
-0.1404526884144882       -0.33661636064502143     -0.01591588667173924
-0.15999174297447297      -0.28960144375469304     -0.02458302825688109
-0.10019905560788404      -0.381404913346839       -0.008416371934209422
-0.0964963512745035       -0.32960337595924083     -0.014033916774471047
-0.06400437490534694      -0.3450022406486385      -0.008770390302996603
-0.3867328428629449       0.025401988410530724     -0.01866085089082514
-0.2690058495552653       -0.13193620204732043     -0.041168851617276486
-0.30484368961868213      -0.05658995207988422     -0.03696931471948577
-0.2733139902010585       -0.09582808500583917     -0.04341535940780902
-0.30866454133788834      -0.012588138936789235    -0.035684439937452184
-0.326329472150017        0.020517130828065715     -0.03041555014705034
-0.34364358981158705      0.06032454921385601      -0.024860919203386338
-0.24070306257138996      -0.1945044306411637      -0.03770267984614844
-0.2347757735087358       -0.15359695044519336     -0.0461028543952454
-0.16531606467639384      -0.25040253480252095     -0.03335215244046022
-0.19073907394536194      -0.2202394662013769      -0.03918029572250411
-0.11109104756063908      -0.2921886660865635      -0.02179384678931225
-0.1251775345247463       -0.25345152941431404     -0.03233691669554765
-0.05755846177984153      -0.2988284325065858      -0.013122708320627365
-0.030243154505483632     -0.3345011948461243      -0.004951881389372903
-0.03266464561661334      -0.3830257613058918      -0.0031018172142682075
0.001976703351593231      -0.34770049688944343     2.823636582218277E-4
-0.3827334166250984       0.09799194379647416      -0.01648980678022791
-0.2276803422473059       -0.11704333038286857     -0.053990203034503075
-0.2789492365448969       -0.02312387627498101     -0.04353266419564366
-0.250751721715074        -0.0513669079902757      -0.05210493740910433
-0.3293717086352422       0.09701369269769929      -0.024679442467067467
-0.27876949507488424      0.01236308971395111      -0.04184759040291031
-0.29316023075253456      0.06028489167056074      -0.03442629344364437
-0.18991724080481023      -0.17088025885879005     -0.05231603695750366
-0.13888050969287727      -0.2166597013505834      -0.04432522955849561
-0.07633259423758156      -0.25013487115983757     -0.02759795692075887
0.0020759936849052097     -0.2990551900680061      5.223714370335649E-4
0.03732529713663925       -0.3343085373911037      0.006052068271726368
0.03421041216385137       -0.3884098631373658      0.003041928146772844
0.06298478777493484       -0.28812340107966783     0.015861610160517906
-0.3397656311290982       0.14030768807024446      -0.019733961815237868
-0.38925803570660755      0.16736438774056436      -0.012187411507831593
-0.29310185039970194      0.11452713617101384      -0.028577198624561918
-0.24898437757514444      0.08175296119938358      -0.04059298253929546
0.06875364402320516       -0.23765245536937146     0.03005484171389956
0.0853785887079116        -0.3482537357810353      0.010670891861512306
0.10632306197844787       -0.4012479012230873      0.0069545147009971026
0.10942193373727298       -0.25194197896691034     0.03172881247781306
0.11783013090468028       -0.3096641485760748      0.019004121393699367
-0.2955971535780566       0.1582249888528356       -0.02331527400262345
-0.3295653986790982       0.20248508795591139      -0.0158318249549765
-0.39110524747421865      0.23396472987809439      -0.00882851096833482
-0.24878170722768891      0.14102619385383816      -0.030924436502797862
0.12158073599863388       -0.21078817109284992     0.04697241333348638
0.14481901610424996       -0.35699554821741386     0.013280896089429709
0.17103153704917107       -0.3986490372676204      0.009049178576990308
0.1507134923344126        -0.2298415310345686      0.03952747621793457
0.1529543133280685        -0.2746748286392752      0.02768748214637599
0.16074728842948732       -0.31472387429910126     0.01997752414965961
0.2355897362610294        -0.3957691883278229      0.009273595623956606
-0.27047042417214967      0.19545711852373507      -0.02135279467365732
-0.22544027664213817      0.1894818066557764       -0.025161311591554634
-0.2920072927403554       0.24591853402222152      -0.014778060338468194
-0.3913438563969903       0.297702305496253        -0.006139958614232648
-0.34452030732526673      0.27099373498953516      -0.010010849579150745
-0.3969301918560937       0.35119624146459155      -0.004022440884966383
0.1826494707442764        -0.20503996009300918     0.04408440286999802
0.20179537207262305       -0.3403046942912597      0.01614561138591678
0.19172356857793285       -0.2501265524781751      0.032129894395262704
0.18743344874189455       -0.2917099092362822      0.023981791071008195
0.30200677972712886       -0.39578819472793625     0.007765727744790736
0.2700864248849443        -0.34299446208480106     0.0138372846641108
0.3680470653206314        -0.4008415799472912      0.005191931583211857
-0.1788785085931339       0.18625030817481592      -0.02742869120617567
-0.2444846641773209       0.23890915917725689      -0.017692626037319952
-0.20468441537935642      0.22741583893345557      -0.020238028984986736
-0.297266292036113        0.2912956730153905       -0.01089187430067837
-0.26048153398146645      0.2772971403464604       -0.013283109740494913
-0.3308928787750285       0.33677654428770043      -0.00690620578811886
-0.36604543110280097      0.3963906508002097       -0.0033795194002524064
0.20999474811067187       -0.1822722407797875      0.045507938188397844
0.2247948500449287        -0.2212378671810554      0.03501468265586008
0.24286015303758463       -0.2812908406057756      0.023085103397937654
0.29748983859585626       -0.2987576247527829      0.01693200187027538
0.3365469009203382        -0.33749428130933107     0.010828521035458135
0.3963447649119678        -0.35180114868417245     0.006345124579817782
-0.1185288382439319       0.22448473778426417      -0.01828045303858733
-0.16429388899601832      0.24132417165661854      -0.018121650560949127
-0.21032473848817074      0.2811137490028103       -0.013798975889552284
-0.2578311947631549       0.3297504569687235       -0.009148047102601408
-0.29620318570359294      0.39134198815948196      -0.00487058310397663
0.21771261426386204       -0.14078115775130057     0.052689029634159314
0.24540887906344508       -0.17894253821887857     0.039558712983300715
0.25708605877002105       -0.1357217202522552      0.04353887746375964
0.2706733180547632        -0.2220396103697881      0.028972310556625996
0.2971790090133948        -0.25679120654215315     0.02151184090792019
0.34243794502044655       -0.2720418295442224      0.015503436514170717
0.3912851933525168        -0.29804139181066097     0.009352159178020207
-0.09447717392345127      0.268212954988186        -0.010873627971773422
-0.13388590757565444      0.27084572494110326      -0.01328611371215565
-0.16195579926108106      0.2923296507327878       -0.01214725900822133
-0.18425396553489595      0.339287547201239        -0.008610916015149421
-0.22575730725758433      0.3891560761559432       -0.005548769032162757
-0.05400870583384483      0.24901903138276477      -0.008084693616955628
0.26974796266194045       -0.09331748809667717     0.044542347465405696
0.2914675400727762        -0.1693606901893403      0.03234077620263389
0.2920235512733874        -0.12641354995838366     0.036471909623740174
0.3321342148707488        -0.20893976387432733     0.02198777701636345
0.39187304799421424       -0.23611760724335715     0.012499317478560696
-0.06463798377911985      0.2963447723339811       -0.0062216635294885725
-0.12032610607186292      0.32262481306987684      -0.00808909395335835
-0.1563664980819724       0.38431130384047696      -0.005294616349940907
-0.03153020013904255      0.2796350324122788       -0.0036846152199314247
0.30879072187834955       -0.09750766082694187     0.03466282079837518
0.2991749130393184        -0.058547102234899714    0.038330515472139386
0.3381478705816524        -0.13624228408395608     0.026416416899128412
0.39316077335799404       -0.16998511914747405     0.015454218068290516
-0.030773644770066683     0.3106297024525838       -0.002719467973142363
-0.057853441790419124     0.3452037210737191       -0.003613334568920712
-0.0956709462096628       0.39105213630488755      -0.003529466283627183
0.007126749911518991      0.2911977342679634       7.580190110719041E-4
0.29150123554903856       -0.007893486793503083    0.039718780380971465
0.3421835829949814        -0.0827433806103654      0.027978693994727483
0.33167459881327577       -0.03594048259106953     0.030801314426534283
0.3935977383240675        -0.1036174951784719      0.017603085600315146
-0.006973348053270883     0.34076725217497633      -4.70507723071212E-4
-0.033805351620035944     0.3918194305544247       -0.001343625589973631
0.03408398661168502       0.32774375169747116      0.0025701626136971916
0.0579065028104002        0.2975447000543251       0.005574406668615827
0.09147146688826223       0.27078011441561517      0.0103819100950993
0.25086024244742633       0.05310014174361406      0.04455094366034193
0.279445795796429         0.031653039333617614     0.040130303944388976
0.22614910312952546       0.12137495032262295      0.037242961156422276
0.3116762975707258        0.0311090048836384       0.032915841638931416
0.3429684979908441        0.006037674985652589     0.027559348256829656
0.3825447644921963        -0.03655611830223205     0.02040668530238213
0.030756913297212057      0.3845812113476105       0.0013282522446558611
0.0775871944935595        0.34435345120784         0.0047356069456893765
0.09654753568007154       0.3086584894245641       0.007801168103480858
0.14327913665094594       0.2186296886332272       0.020819476522758954
0.1361373287076026        0.2581850327682418       0.014845308210403673
0.1245805480073144        0.29379007555888303      0.010563865719375077
0.18414056302629916       0.21251625072552843      0.022690788872128855
0.21143756654673107       0.18538793219111815      0.026556382342846175
0.24114131949889375       0.1545037792280118       0.029576185505486744
0.26882932895819667       0.09264075921432233      0.035259292905189386
0.29736098697945723       0.0662276110162322       0.033015120933378
0.2678563310592009        0.129939811116154        0.03020299304282269
0.34710497153785985       0.05952018587619268      0.024295039777819525
0.3973355664859648        0.03162748627896416      0.016641582007408288
0.09816006108444646       0.39190524814008365      0.0035676193667231906
0.13119196620082135       0.33682410588615735      0.0075450376267730285
0.18022287203649143       0.24919275329956214      0.017354764837683667
0.16724031332311315       0.2957422556815771       0.011950976890299676
0.2240371457426546        0.2296179032831388       0.019501708325895626
0.2671468788878567        0.1999053504115383       0.021064785622882585
0.2852636588509349        0.16008428589841725      0.02423013103280636
0.32115333261119244       0.12022077009233345      0.023918539381102364
0.38828172859216326       0.09647993870721155      0.015743926231079165
0.16449157289078356       0.3922312689594268       0.004983499031977392
0.19762788527549355       0.3399308712843953       0.008689466848795119
0.22910068224070854       0.2817772358450167       0.013559498412528723
0.28455926651687163       0.24669040577035703      0.015100074340102394
0.3283774883894406        0.1941924544426589       0.016604360668943625
0.38680318407283326       0.16250621230246634      0.012707264826497103
0.23025108822904425       0.39310895739362384      0.005314400974378284
0.2637888310090831        0.33973012211945147      0.008365803033311197
0.290964573465323         0.29483451964199336      0.010862105861295941
0.3406155794046201        0.2687210050630372       0.010368985318260934
0.39361525944408166       0.23323202792037448      0.008663935402299048
0.29415396204389177       0.39144539353000335      0.00489353620571522
0.33146753009789426       0.33630395141599034      0.006913597267764445
0.39271441534814167       0.30037138968952265      0.005966188857483645
0.3478284364756763        0.39559999220226627      0.0037867359352474943
0.39708409123818045       0.3656041994782763       0.0035717914009117317
-0.12822341901701012      -0.0988029753601465      -0.06038473716198296
-0.1398840634641124       -0.05880452163447115     -0.05779528192560641
-0.15882144660810082      -0.02149128751119459     -0.058791834701594506
-0.09246458453698735      -0.12209222259447866     -0.04988856813679587
-0.06272671095704488      -0.15106469050182492     -0.041136566287583366
-0.019717288075604956     -0.15391694517232485     -0.014439227414964584
0.02081803301069729       -0.16211170949435333     0.016355650944403836
-0.1503844421095864       0.02131130112993673      -0.05096423267568989
-0.14746467500984545      0.0634572137960323       -0.04603769896405446
0.05273940310431175       -0.14579870259956362     0.03428751279155815
-0.12131946141279393      0.09358166444483978      -0.03621060444949293
0.09239191560389115       -0.12586814952973013     0.05064443517455227
-0.09676432011811711      0.12880514345420863      -0.027356966298493456
0.1246149630558356        -0.09726942190527554     0.05867652040633181
-0.05955497144550131      0.1425975886385108       -0.016566627689373878
0.15066358977779404       -0.06642391231578706     0.06284087859096826
-0.021353793787486003     0.16120461300666888      -0.0057823447162459966
0.15338698374215978       -0.02604745697482463     0.05764179846080197
0.020741726356162744      0.15121225571199856      0.00570903743820821
0.159325867209345         0.013896430332536461     0.054537257568675335
0.14032181369014682       0.053351628128389256     0.044814031500274715
0.12713378140060158       0.09281586205677919      0.03792146190566056
0.09236237404755944       0.11662722608486209      0.02668854931650302
0.061975895795117905      0.14637490522795102      0.0171273149845559
-0.08312738599789628      -0.0636512051541879      -0.03667442802050629
-0.1032335641242615       -0.014636118552433134    -0.03908764398222625
-0.03801551166021061      -0.10489345822304715     -0.020329992027296902
0.017173396617506297      -0.1182413256302204      0.009933824337789582
0.0571683124927294        -0.11226416816436502     0.031046198386756048
-0.03244376511711501      -0.05628644718751527     -0.014370209509793699
-0.04838394040555979      -0.01960414122964189     -0.019051661313601174
-0.06236468499297519      0.01678093784479162      -0.022251988429446843
-0.10017585348133769      0.046677447790055476     -0.032991168700308375
-0.05283226329941373      0.050248733652143475     -0.017511353801351857
0.007302285976418815      -0.0691654592353528      0.0034010011991251823
0.04322366718809669       -0.08559877311237606     0.0212234298565627
0.08034846968067734       -0.08589284345316728     0.0383146816979657
0.0016349679801537812     -0.025243551683049745    6.587605700757044E-4
-0.010673210283926156     0.025633106103007456     -0.003763609638939275
-0.06550276679032982      0.0929857909482785       -0.01987037882536569
-0.025655618909397604     0.06948649650332793      -0.008199365058878865
0.054135035051573         -0.04252573042869333     0.022750247399249655
0.1113745233914028        -0.05251894204109184     0.0464265953373037
0.04764734232429686       0.010633046707398758     0.017329058666664395
0.03707455316792359       0.04966865609501149      0.01233755390298558
0.006912281937558003      0.0695315154735757       0.0022114834789999007
-0.012744664291807872     0.10964066127602995      -0.003770945328240665
0.10634680864044405       0.0026222334325549917    0.03852811476883814
0.0835213334787186        0.056209516792449093     0.027120420460842985
0.04200379954751439       0.09874803660120723      0.01265182449615963
