% Model:              fish.mph
% Version:            COMSOL 5.4.0.346
% Date:               Sep 13 2019, 12:41
% Dimension:          2
% Nodes:              14641
% Expressions:        1
% Description:        Electric potential
% Length unit:        m
% x                       y                        V2 (V)
-0.3                      -0.3                     2.1354516054444679E-4
-0.295                    -0.3                     2.1237318610393738E-4
-0.29                     -0.3                     2.1108996472052078E-4
-0.285                    -0.3                     2.096926300017607E-4
-0.27999999999999997      -0.3                     2.0818550811229605E-4
-0.27499999999999997      -0.3                     2.065974767525899E-4
-0.27                     -0.3                     2.0491375931506867E-4
-0.265                    -0.3                     2.031248760078206E-4
-0.26                     -0.3                     2.0125062269667145E-4
-0.255                    -0.3                     1.9929296195410256E-4
-0.25                     -0.3                     1.9725189378011403E-4
-0.245                    -0.3                     1.9512741817470593E-4
-0.24                     -0.3                     1.9291953513787805E-4
-0.235                    -0.3                     1.9062824466963056E-4
-0.22999999999999998      -0.3                     1.883165401270473E-4
-0.22499999999999998      -0.3                     1.859290095621354E-4
-0.21999999999999997      -0.3                     1.8345518158362827E-4
-0.21499999999999997      -0.3                     1.8100240789673867E-4
-0.21                     -0.3                     1.784731523646839E-4
-0.205                    -0.3                     1.7585891540584375E-4
-0.19999999999999998      -0.3                     1.7315969702021814E-4
-0.195                    -0.3                     1.7037549720780716E-4
-0.19                     -0.3                     1.675063159686107E-4
-0.185                    -0.3                     1.6456653601004646E-4
-0.18                     -0.3                     1.615699355887618E-4
-0.175                    -0.3                     1.5840703309691958E-4
-0.16999999999999998      -0.3                     1.552117045354361E-4
-0.16499999999999998      -0.3                     1.5183564635320735E-4
-0.15999999999999998      -0.3                     1.4827852384201377E-4
-0.155                    -0.3                     1.445403370018554E-4
-0.15                     -0.3                     1.4062108583273226E-4
-0.145                    -0.3                     1.3652077033464433E-4
-0.13999999999999999      -0.3                     1.3218620744591826E-4
-0.13499999999999998      -0.3                     1.2759916676129748E-4
-0.12999999999999998      -0.3                     1.2278646626212312E-4
-0.12499999999999997      -0.3                     1.1766296843769194E-4
-0.12                     -0.3                     1.1224730433483913E-4
-0.11499999999999999      -0.3                     1.0653009628971131E-4
-0.10999999999999999      -0.3                     1.0051134430230857E-4
-0.10499999999999998      -0.3                     9.419104837263082E-5
-0.09999999999999998      -0.3                     8.756920850067812E-5
-0.09499999999999997      -0.3                     8.057980259775298E-5
-0.09                     -0.3                     7.318450032720161E-5
-0.08499999999999999      -0.3                     6.53906119575405E-5
-0.07999999999999999      -0.3                     5.722332330931653E-5
-0.07499999999999998      -0.3                     4.867419549428277E-5
-0.06999999999999998      -0.3                     3.9735650723526886E-5
-0.06499999999999997      -0.3                     3.0407688997048893E-5
-0.06                     -0.3                     2.0690310314848843E-5
-0.05499999999999999      -0.3                     1.0583514676926627E-5
-0.04999999999999999      -0.3                     6.272604017622083E-8
-0.044999999999999984     -0.3                     -1.0941117826102407E-5
-0.03999999999999998      -0.3                     -2.2432155335938914E-5
-0.034999999999999976     -0.3                     -3.438127518557029E-5
-0.02999999999999997      -0.3                     -4.673898736899868E-5
-0.024999999999999967     -0.3                     -5.950746108801857E-5
-0.019999999999999962     -0.3                     -7.268669634263002E-5
-0.014999999999999958     -0.3                     -8.627669313283299E-5
-0.010000000000000009     -0.3                     -1.0027745145862733E-4
-0.0050000000000000044    -0.3                     -1.1466795516129933E-4
0                         -0.3                     -1.2951894004732234E-4
0.0050000000000000044     -0.3                     -1.4485088779552974E-4
0.010000000000000009      -0.3                     -1.6066476658542877E-4
0.015000000000000013      -0.3                     -1.768503324887453E-4
0.020000000000000018      -0.3                     -1.9338596057908363E-4
0.025000000000000022      -0.3                     -2.1027165085644387E-4
0.030000000000000027      -0.3                     -2.2750740332082598E-4
0.03500000000000003       -0.3                     -2.450932179722299E-4
0.040000000000000036      -0.3                     -2.6297397377626064E-4
0.04500000000000004       -0.3                     -2.811595204527657E-4
0.050000000000000044      -0.3                     -2.997110649860139E-4
0.05499999999999999       -0.3                     -3.186572668131917E-4
0.06                      -0.3                     -3.378772561948939E-4
0.065                     -0.3                     -3.5729167942534013E-4
0.07                      -0.3                     -3.769005365045303E-4
0.07500000000000001       -0.3                     -3.9670382743246444E-4
0.08000000000000002       -0.3                     -4.167015522091427E-4
0.08500000000000002       -0.3                     -4.3685904404067486E-4
0.09000000000000002       -0.3                     -4.570439946766011E-4
0.09500000000000003       -0.3                     -4.773546898342994E-4
0.10000000000000003       -0.3                     -4.978156404609081E-4
0.10500000000000004       -0.3                     -5.184218582056544E-4
0.11000000000000004       -0.3                     -5.390004211491557E-4
0.11500000000000005       -0.3                     -5.59551329291412E-4
0.12                      -0.3                     -5.800745826324233E-4
0.125                     -0.3                     -6.005701811721899E-4
0.13                      -0.3                     -6.210381249107116E-4
0.135                     -0.3                     -6.412957854013689E-4
0.14                      -0.3                     -6.613588225628207E-4
0.14500000000000002       -0.3                     -6.812464680584713E-4
0.15000000000000002       -0.3                     -7.010545243617909E-4
0.15500000000000003       -0.3                     -7.206431585158197E-4
0.16000000000000003       -0.3                     -7.399741542719361E-4
0.16500000000000004       -0.3                     -7.590475116301392E-4
0.17000000000000004       -0.3                     -7.7786323059043E-4
0.17500000000000004       -0.3                     -7.964213111528081E-4
0.18                      -0.3                     -8.146521211064393E-4
0.185                     -0.3                     -8.324217970200619E-4
0.19                      -0.3                     -8.497647992279921E-4
0.195                     -0.3                     -8.667183346437796E-4
0.2                       -0.3                     -8.833256936271267E-4
0.20500000000000002       -0.3                     -8.995008513437213E-4
0.21000000000000002       -0.3                     -9.152438077935631E-4
0.21500000000000002       -0.3                     -9.305545629766523E-4
0.22000000000000003       -0.3                     -9.454331168929886E-4
0.22500000000000003       -0.3                     -9.598731718198674E-4
0.23000000000000004       -0.3                     -9.737509590734396E-4
0.23500000000000004       -0.3                     -9.870634900015472E-4
0.24000000000000005       -0.3                     -9.998107646041904E-4
0.24500000000000005       -0.3                     -0.0010120525026592786
0.25000000000000006       -0.3                     -0.0010237833271036034
0.25500000000000006       -0.3                     -0.0010349849800283721
0.26000000000000006       -0.3                     -0.0010456574614335842
0.26500000000000007       -0.3                     -0.001055800771319241
0.2700000000000001        -0.3                     -0.001065413420007523
0.2750000000000001        -0.3                     -0.0010744451724496425
0.27999999999999997       -0.3                     -0.0010828817281933135
0.285                     -0.3                     -0.0010907230872385359
0.29                      -0.3                     -0.0010979692495853097
0.295                     -0.3                     -0.001104648227990403
0.3                       -0.3                     -0.0011107659773377243
-0.3                      -0.295                   2.1465292634170784E-4
-0.295                    -0.295                   2.1346522371769257E-4
-0.29                     -0.295                   2.1216340775833377E-4
-0.285                    -0.295                   2.1074747846363154E-4
-0.27999999999999997      -0.295                   2.0922277483413529E-4
-0.27499999999999997      -0.295                   2.0760622449188398E-4
-0.27                     -0.295                   2.0589398807181758E-4
-0.265                    -0.295                   2.0408650712842286E-4
-0.26                     -0.295                   2.0219524960053906E-4
-0.255                    -0.295                   2.0022058464123563E-4
-0.25                     -0.295                   1.9816251225051261E-4
-0.245                    -0.295                   1.9602103242836986E-4
-0.24                     -0.295                   1.9379614517480752E-4
-0.235                    -0.295                   1.9151714005941935E-4
-0.22999999999999998      -0.295                   1.8919022403791802E-4
-0.22499999999999998      -0.295                   1.867962173905944E-4
-0.21999999999999997      -0.295                   1.8433948416007607E-4
-0.21499999999999997      -0.295                   1.818775895747489E-4
-0.21                     -0.295                   1.7940522874073162E-4
-0.205                    -0.295                   1.7684788647992896E-4
-0.19999999999999998      -0.295                   1.7420556279234084E-4
-0.195                    -0.295                   1.7147825767796737E-4
-0.19                     -0.295                   1.6867554059890635E-4
-0.185                    -0.295                   1.6585176454232014E-4
-0.18                     -0.295                   1.6299299174972053E-4
-0.175                    -0.295                   1.5999214711293552E-4
-0.16999999999999998      -0.295                   1.5686420375696743E-4
-0.16499999999999998      -0.295                   1.536254965357867E-4
-0.15999999999999998      -0.295                   1.5020572498564123E-4
-0.155                    -0.295                   1.46604889106531E-4
-0.15                     -0.295                   1.4282298889845593E-4
-0.145                    -0.295                   1.3884865012037302E-4
-0.13999999999999999      -0.295                   1.346446542533813E-4
-0.13499999999999998      -0.295                   1.3023176669849383E-4
-0.12999999999999998      -0.295                   1.2558319920837809E-4
-0.12499999999999997      -0.295                   1.2060893753338528E-4
-0.12                     -0.295                   1.1531044231892876E-4
-0.11499999999999999      -0.295                   1.0970543557767612E-4
-0.10999999999999999      -0.295                   1.0379888489414851E-4
-0.10499999999999998      -0.295                   9.759079026834595E-5
-0.09999999999999998      -0.295                   9.107765548856861E-5
-0.09499999999999997      -0.295                   8.419035336286405E-5
-0.09                     -0.295                   7.690446513804982E-5
-0.08499999999999999      -0.295                   6.921999081412587E-5
-0.07999999999999999      -0.295                   6.11346147867403E-5
-0.07499999999999998      -0.295                   5.264365488946668E-5
-0.06999999999999998      -0.295                   4.376327803647095E-5
-0.06499999999999997      -0.295                   3.4493484227753106E-5
-0.06                     -0.295                   2.4834273463313212E-5
-0.05499999999999999      -0.295                   1.478807848603698E-5
-0.04999999999999999      -0.295                   4.3012335224802125E-6
-0.044999999999999984     -0.295                   -6.672805084634436E-6
-0.03999999999999998      -0.295                   -1.8134037335306958E-5
-0.034999999999999976     -0.295                   -3.0082463229537364E-5
-0.02999999999999997      -0.295                   -4.246196877504454E-5
-0.024999999999999967     -0.295                   -5.525199020220112E-5
-0.019999999999999962     -0.295                   -6.845277316494922E-5
-0.014999999999999958     -0.295                   -8.206431766328885E-5
-0.010000000000000009     -0.295                   -9.608121613126759E-5
-0.0050000000000000044    -0.295                   -1.1053534920813204E-4
0                         -0.295                   -1.2547044514718092E-4
0.0050000000000000044     -0.295                   -1.4088650394841415E-4
0.010000000000000009      -0.295                   -1.5678341884193818E-4
0.015000000000000013      -0.295                   -1.730879525809521E-4
0.020000000000000018      -0.295                   -1.8974254850698784E-4
0.025000000000000022      -0.295                   -2.067472066200455E-4
0.030000000000000027      -0.295                   -2.2410192692012503E-4
0.03500000000000003       -0.295                   -2.4180396693041805E-4
0.040000000000000036      -0.295                   -2.598326380387917E-4
0.04500000000000004       -0.295                   -2.7822730700390865E-4
0.050000000000000044      -0.295                   -2.9698797382576885E-4
0.05499999999999999       -0.295                   -3.16114638504372E-4
0.06                      -0.295                   -3.3554183739222324E-4
0.065                     -0.295                   -3.5516467449170564E-4
0.07                      -0.295                   -3.749819454399321E-4
0.07500000000000001       -0.295                   -3.9499365023690263E-4
0.08000000000000002       -0.295                   -4.151997888826171E-4
0.08500000000000002       -0.295                   -4.355606442709167E-4
0.09000000000000002       -0.295                   -4.56044817483274E-4
0.09500000000000003       -0.295                   -4.7665473521740326E-4
0.10000000000000003       -0.295                   -4.973903974733046E-4
0.10500000000000004       -0.295                   -5.182297324136346E-4
0.11000000000000004       -0.295                   -5.390578614316127E-4
0.11500000000000005       -0.295                   -5.59858335648346E-4
0.12                      -0.295                   -5.806311550638342E-4
0.125                     -0.295                   -6.013763196780779E-4
0.13                      -0.295                   -6.220766827841518E-4
0.135                     -0.295                   -6.426214894107943E-4
0.14                      -0.295                   -6.629909043716359E-4
0.14500000000000002       -0.295                   -6.83184927666676E-4
0.15000000000000002       -0.295                   -7.032054155383588E-4
0.15500000000000003       -0.295                   -7.230151761578128E-4
0.16000000000000003       -0.295                   -7.425672983793535E-4
0.16500000000000004       -0.295                   -7.618617822029818E-4
0.17000000000000004       -0.295                   -7.808986276286976E-4
0.17500000000000004       -0.295                   -7.996777307728793E-4
0.18                      -0.295                   -8.181062017995296E-4
0.185                     -0.295                   -8.361079991204875E-4
0.19                      -0.295                   -8.53683122735753E-4
0.195                     -0.295                   -8.708315726453259E-4
0.2                       -0.295                   -8.875741694946299E-4
0.20500000000000002       -0.295                   -9.038957862164891E-4
0.21000000000000002       -0.295                   -9.197852016715957E-4
0.21500000000000002       -0.295                   -9.352424158599491E-4
0.22000000000000003       -0.295                   -9.502674287815504E-4
0.22500000000000003       -0.295                   -9.648297788044742E-4
0.23000000000000004       -0.295                   -9.788338094179638E-4
0.23500000000000004       -0.295                   -9.922725837059898E-4
0.24000000000000005       -0.295                   -0.00100514610166855
0.24500000000000005       -0.295                   -0.0010174562544133796
0.25000000000000006       -0.295                   -0.0010292564125377948
0.25500000000000006       -0.295                   -0.001040527399142654
0.26000000000000006       -0.295                   -0.0010512692142279568
0.26500000000000007       -0.295                   -0.0010614818577937034
0.2700000000000001        -0.295                   -0.0010711524344931788
0.2750000000000001        -0.295                   -0.0010802321988006667
0.27999999999999997       -0.295                   -0.0010887167664097057
0.285                     -0.295                   -0.0010966061373202968
0.29                      -0.295                   -0.0011039003115324393
0.295                     -0.295                   -0.001110599289046133
0.3                       -0.295                   -0.0011167384409890753
-0.3                      -0.29                    2.158703096940212E-4
-0.295                    -0.29                    2.1466401249406366E-4
-0.29                     -0.29                    2.1334360195876276E-4
-0.285                    -0.29                    2.1190907808811836E-4
-0.27999999999999997      -0.29                    2.1036232080063333E-4
-0.27499999999999997      -0.29                    2.0871725147583685E-4
-0.27                     -0.29                    2.069764960732253E-4
-0.265                    -0.29                    2.051400545927987E-4
-0.26                     -0.29                    2.032155867640224E-4
-0.255                    -0.29                    2.0122391758798438E-4
-0.25                     -0.29                    1.9914884098052674E-4
-0.245                    -0.29                    1.9699035694164946E-4
-0.24                     -0.29                    1.947511343195359E-4
-0.235                    -0.29                    1.9245606241861233E-4
-0.22999999999999998      -0.29                    1.9010878596092105E-4
-0.22499999999999998      -0.29                    1.8770540892893196E-4
-0.21999999999999997      -0.29                    1.8526577044640223E-4
-0.21499999999999997      -0.29                    1.8282068206238784E-4
-0.21                     -0.29                    1.8037025242783914E-4
-0.205                    -0.29                    1.778698048650739E-4
-0.19999999999999998      -0.29                    1.7528437587552333E-4
-0.195                    -0.29                    1.726187501283249E-4
-0.19                     -0.29                    1.6992922430047897E-4
-0.185                    -0.29                    1.672262373310307E-4
-0.18                     -0.29                    1.645012027794948E-4
-0.175                    -0.29                    1.6166241599776694E-4
-0.16999999999999998      -0.29                    1.586931006255172E-4
-0.16499999999999998      -0.29                    1.5559001482292863E-4
-0.15999999999999998      -0.29                    1.5230759423383127E-4
-0.155                    -0.29                    1.4884410931576914E-4
-0.15                     -0.29                    1.4520148651917542E-4
-0.145                    -0.29                    1.4138714685373353E-4
-0.13999999999999999      -0.29                    1.373615897784692E-4
-0.13499999999999998      -0.29                    1.3312487598675932E-4
-0.12999999999999998      -0.29                    1.286404415057023E-4
-0.12499999999999997      -0.29                    1.238303128397681E-4
-0.12                     -0.29                    1.1869448998895686E-4
-0.11499999999999999      -0.29                    1.1322448170522452E-4
-0.10999999999999999      -0.29                    1.074301323255721E-4
-0.10499999999999998      -0.29                    1.0133423900364466E-4
-0.09999999999999998      -0.29                    9.495271468855063E-5
-0.09499999999999997      -0.29                    8.817482660858323E-5
-0.09                     -0.29                    8.099835242950616E-5
-0.08499999999999999      -0.29                    7.342329215131942E-5
-0.07999999999999999      -0.29                    6.544964577402294E-5
-0.07499999999999998      -0.29                    5.7043726177264984E-5
-0.06999999999999998      -0.29                    4.82215172420294E-5
-0.06499999999999997      -0.29                    3.900989135107171E-5
-0.06                     -0.29                    2.9408848504391965E-5
-0.05499999999999999      -0.29                    1.9424212264417512E-5
-0.04999999999999999      -0.29                    8.967172560024725E-6
-0.044999999999999984     -0.29                    -1.9770607879259445E-6
-0.03999999999999998      -0.29                    -1.3408487779434477E-5
-0.034999999999999976     -0.29                    -2.5327108414500898E-5
-0.02999999999999997      -0.29                    -3.772301722433525E-5
-0.024999999999999967     -0.29                    -5.0534586359628476E-5
-0.019999999999999962     -0.29                    -6.375691703051323E-5
-0.014999999999999958     -0.29                    -7.739000923698955E-5
-0.010000000000000009     -0.29                    -9.145027197506316E-5
-0.0050000000000000044    -0.29                    -1.0598851610495348E-4
0                         -0.29                    -1.2100772309702819E-4
0.0050000000000000044     -0.29                    -1.3650789295128728E-4
0.010000000000000009      -0.29                    -1.5248902566773073E-4
0.015000000000000013      -0.29                    -1.6892250142489318E-4
0.020000000000000018      -0.29                    -1.8569606518662634E-4
0.025000000000000022      -0.29                    -2.0281969113538137E-4
0.030000000000000027      -0.29                    -2.2029337927115828E-4
0.03500000000000003       -0.29                    -2.3815093600081924E-4
0.040000000000000036      -0.29                    -2.5638872939780493E-4
0.04500000000000004       -0.29                    -2.7499252065153377E-4
0.050000000000000044      -0.29                    -2.939623097620059E-4
0.05499999999999999       -0.29                    -3.1329809672922093E-4
0.06                      -0.29                    -3.329727088820872E-4
0.065                     -0.29                    -3.528039598506059E-4
0.07                      -0.29                    -3.728296446678687E-4
0.07500000000000001       -0.29                    -3.9304976333387546E-4
0.08000000000000002       -0.29                    -4.135065984810241E-4
0.08500000000000002       -0.29                    -4.3416424974804024E-4
0.09000000000000002       -0.29                    -4.5494764553682834E-4
0.09500000000000003       -0.29                    -4.7585678584738866E-4
0.10000000000000003       -0.29                    -4.968916706797209E-4
0.10500000000000004       -0.29                    -5.180523000338253E-4
0.11000000000000004       -0.29                    -5.39140807890647E-4
0.11500000000000005       -0.29                    -5.60190848181857E-4
0.12                      -0.29                    -5.812132336718223E-4
0.125                     -0.29                    -6.022215791932262E-4
0.13                      -0.29                    -6.232481552850594E-4
0.135                     -0.29                    -6.440993397110915E-4
0.14                      -0.29                    -6.647751324713225E-4
0.14500000000000002       -0.29                    -6.852755335657523E-4
0.15000000000000002       -0.29                    -7.056005429943811E-4
0.15500000000000003       -0.29                    -7.256794951534633E-4
0.16000000000000003       -0.29                    -7.45452743840429E-4
0.16500000000000004       -0.29                    -7.649683541294822E-4
0.17000000000000004       -0.29                    -7.842263260206229E-4
0.17500000000000004       -0.29                    -8.032707443176443E-4
0.18                      -0.29                    -8.2193133675163E-4
0.185                     -0.29                    -8.401652554799234E-4
0.19                      -0.29                    -8.579725005025242E-4
0.195                     -0.29                    -8.753530718194323E-4
0.2                       -0.29                    -8.923052182865402E-4
0.20500000000000002       -0.29                    -9.087732940136638E-4
0.21000000000000002       -0.29                    -9.248091684740349E-4
0.21500000000000002       -0.29                    -9.404128416676533E-4
0.22000000000000003       -0.29                    -9.555959763312722E-4
0.22500000000000003       -0.29                    -9.702915066301443E-4
0.23000000000000004       -0.29                    -9.84421780603552E-4
0.23500000000000004       -0.29                    -9.979867982514946E-4
0.24000000000000005       -0.29                    -0.001010986559573973
0.24500000000000005       -0.29                    -0.0010234210645709866
0.25000000000000006       -0.29                    -0.0010352946557055172
0.25500000000000006       -0.29                    -0.0010466349759904662
0.26000000000000006       -0.29                    -0.0010574461247558594
0.26500000000000007       -0.29                    -0.0010677323101862019
0.2700000000000001        -0.29                    -0.0010774552830575064
0.2750000000000001        -0.29                    -0.0010865830592303625
0.27999999999999997       -0.29                    -0.0010951156387047699
0.285                     -0.29                    -0.0011030530214807288
0.29                      -0.29                    -0.0011103952075582394
0.295                     -0.29                    -0.0011171421969373018
0.3                       -0.29                    -0.0011232967647410428
-0.3                      -0.285                   2.1719444420895053E-4
-0.295                    -0.285                   2.159695524330508E-4
-0.29                     -0.285                   2.1463054732180777E-4
-0.285                    -0.285                   2.131774288752213E-4
-0.27999999999999997      -0.285                   2.1160414601179014E-4
-0.27499999999999997      -0.285                   2.0993055770444853E-4
-0.27                     -0.285                   2.0816128331929186E-4
-0.265                    -0.285                   2.062963228563201E-4
-0.26                     -0.285                   2.0433567631553324E-4
-0.255                    -0.285                   2.0230296079434877E-4
-0.25                     -0.285                   2.002108799701566E-4
-0.245                    -0.285                   1.9801852290739715E-4
-0.24                     -0.285                   1.9575529512705117E-4
-0.235                    -0.285                   1.934398627899376E-4
-0.22999999999999998      -0.285                   1.910722258960564E-4
-0.22499999999999998      -0.285                   1.8865658417714784E-4
-0.21999999999999997      -0.285                   1.8623404044260683E-4
-0.21499999999999997      -0.285                   1.8380604680658108E-4
-0.21                     -0.285                   1.8137260326907064E-4
-0.205                    -0.285                   1.789246705612787E-4
-0.19999999999999998      -0.285                   1.763961645983021E-4
-0.195                    -0.285                   1.738408889991965E-4
-0.19                     -0.285                   1.712721522584885E-4
-0.185                    -0.285                   1.6868995437617813E-4
-0.18                     -0.285                   1.660945686780846E-4
-0.175                    -0.285                   1.6341783975141398E-4
-0.16999999999999998      -0.285                   1.6061058223422144E-4
-0.16499999999999998      -0.285                   1.5767279612650685E-4
-0.15999999999999998      -0.285                   1.545841315865839E-4
-0.155                    -0.285                   1.5125799762956982E-4
-0.15                     -0.285                   1.4782003317843337E-4
-0.145                    -0.285                   1.4418413230471886E-4
-0.13999999999999999      -0.285                   1.4033701402118198E-4
-0.13499999999999998      -0.285                   1.3627867832782264E-4
-0.12999999999999998      -0.285                   1.3195819315409572E-4
-0.12499999999999997      -0.285                   1.273121974972202E-4
-0.12                     -0.285                   1.2234050765546763E-4
-0.11499999999999999      -0.285                   1.170431236288379E-4
-0.10999999999999999      -0.285                   1.1140508659657923E-4
-0.10499999999999998      -0.285                   1.0547158430426141E-4
-0.09999999999999998      -0.285                   9.920169636914083E-5
-0.09499999999999997      -0.285                   9.253322233491059E-5
-0.09                     -0.285                   8.546616220157067E-5