% Model:              fish_eig.mph
% Version:            COMSOL 5.4.0.346
% Date:               Jan 16 2020, 13:16
% Dimension:          2
% Nodes:              14641
% Expressions:        1
% Description:        Electric potential
% Length unit:        m
% x                       y                        V (V)
-0.3                      -0.3                     4.8798114548646566E-4
-0.295                    -0.3                     4.846984253014978E-4
-0.29                     -0.3                     4.8110385388994555E-4
-0.285                    -0.3                     4.7719345024055393E-4
-0.27999999999999997      -0.3                     4.729743105744741E-4
-0.27499999999999997      -0.3                     4.684830051268191E-4
-0.27                     -0.3                     4.6371110809662736E-4
-0.265                    -0.3                     4.5865733660894234E-4
-0.26                     -0.3                     4.533294775076306E-4
-0.255                    -0.3                     4.47728335125423E-4
-0.25                     -0.3                     4.418539094623195E-4
-0.245                    -0.3                     4.3570620051832016E-4
-0.24                     -0.3                     4.2928520829342467E-4
-0.235                    -0.3                     4.225909327876334E-4
-0.22999999999999998      -0.3                     4.1575648285519987E-4
-0.22499999999999998      -0.3                     4.087001813195426E-4
-0.21999999999999997      -0.3                     4.0129602144993085E-4
-0.21499999999999997      -0.3                     3.9387883784935393E-4
-0.21                     -0.3                     3.861887212219656E-4
-0.205                    -0.3                     3.781815967775339E-4
-0.19999999999999998      -0.3                     3.698574645160591E-4
-0.195                    -0.3                     3.6121632443754126E-4
-0.19                     -0.3                     3.522581765419803E-4
-0.185                    -0.3                     3.4301495133010117E-4
-0.18                     -0.3                     3.334925785987123E-4
-0.175                    -0.3                     3.234521208236482E-4
-0.16999999999999998      -0.3                     3.1319780267227736E-4
-0.16499999999999998      -0.3                     3.0233801498808475E-4
-0.15999999999999998      -0.3                     2.908647367025027E-4
-0.155                    -0.3                     2.787779678155315E-4
-0.15                     -0.3                     2.660777083271708E-4
-0.145                    -0.3                     2.5276395823742087E-4
-0.13999999999999999      -0.3                     2.386272157479941E-4
-0.13499999999999998      -0.3                     2.2380084824225778E-4
-0.12999999999999998      -0.3                     2.081154631484421E-4
-0.12499999999999997      -0.3                     1.9148272232732887E-4
-0.12                     -0.3                     1.7391392846889645E-4
-0.11499999999999999      -0.3                     1.5532127791434777E-4
-0.10999999999999999      -0.3                     1.357047706636828E-4
-0.10499999999999998      -0.3                     1.1506440671690174E-4
-0.09999999999999998      -0.3                     9.340018607400441E-5
-0.09499999999999997      -0.3                     7.049539035564886E-5
-0.09                     -0.3                     4.621224566516692E-5
-0.08499999999999999      -0.3                     2.065061439357449E-5
-0.07999999999999999      -0.3                     -6.075359558271181E-6
-0.07499999999999998      -0.3                     -3.415318342317527E-5
-0.06999999999999998      -0.3                     -6.366250622524864E-5
-0.06499999999999997      -0.3                     -9.46033279644913E-5
-0.06                     -0.3                     -1.2697564864090307E-4
-0.05499999999999999      -0.3                     -1.6077946825448431E-4
-0.04999999999999999      -0.3                     -1.9617529520049012E-4
-0.044999999999999984     -0.3                     -2.333903348117499E-4
-0.03999999999999998      -0.3                     -2.723538613173385E-4
-0.034999999999999976     -0.3                     -3.1290047616975664E-4
-0.02999999999999997      -0.3                     -3.551008014427897E-4
-0.024999999999999967     -0.3                     -3.99043679491297E-4
-0.019999999999999962     -0.3                     -4.4472911031527855E-4
-0.014999999999999958     -0.3                     -4.921570939147343E-4
-0.010000000000000009     -0.3                     -5.413276302896638E-4
-0.0050000000000000044    -0.3                     -5.923281017619079E-4
0                         -0.3                     -6.454203944805394E-4
0.0050000000000000044     -0.3                     -7.006126289866705E-4
0.010000000000000009      -0.3                     -7.577963341117323E-4
0.015000000000000013      -0.3                     -8.168526834874492E-4
0.020000000000000018      -0.3                     -8.777978646880756E-4
0.025000000000000022      -0.3                     -9.406318777136111E-4
0.030000000000000027      -0.3                     -0.001005354722564056
0.03500000000000003       -0.3                     -0.0010719663992394103
0.040000000000000036      -0.3                     -0.0011404145246870325
0.04500000000000004       -0.3                     -0.001210979399973049
0.050000000000000044      -0.3                     -0.0012838052516135096
0.05499999999999999       -0.3                     -0.0013588891875431813
0.06                      -0.3                     -0.0014357973854949642
0.065                     -0.3                     -0.0015144219597457312
0.07                      -0.3                     -0.0015947629102954827
0.07500000000000001       -0.3                     -0.0016768202371442184
0.08000000000000002       -0.3                     -0.0017605939402919378
0.08500000000000002       -0.3                     -0.0018459540149899306
0.09000000000000002       -0.3                     -0.0019328211261196747
0.09500000000000003       -0.3                     -0.0020216522799485818
0.10000000000000003       -0.3                     -0.002112539563767226
0.10500000000000004       -0.3                     -0.002205066247530393
0.11000000000000004       -0.3                     -0.002298655490943354
0.11500000000000005       -0.3                     -0.0023933072940061084
0.12                      -0.3                     -0.0024890216567186557
0.125                     -0.3                     -0.0025857985790809987
0.13                      -0.3                     -0.0026836380610931352
0.135                     -0.3                     -0.0027817566739291467
0.14                      -0.3                     -0.002880778026698808
0.14500000000000002       -0.3                     -0.0029807723273243087
0.15000000000000002       -0.3                     -0.003081967894308959
0.15500000000000003       -0.3                     -0.003183201069780782
0.16000000000000003       -0.3                     -0.003284350021945696
0.16500000000000004       -0.3                     -0.0033854147508037007
0.17000000000000004       -0.3                     -0.0034863952563547965
0.17500000000000004       -0.3                     -0.0035872915385989843
0.18                      -0.3                     -0.0036874800334370543
0.185                     -0.3                     -0.003786683440557249
0.19                      -0.3                     -0.003885182256006654
0.195                     -0.3                     -0.003983148816956288
0.2                       -0.3                     -0.0040803710557362205
0.20500000000000002       -0.3                     -0.0041760995653453165
0.21000000000000002       -0.3                     -0.004270334345783577
0.21500000000000002       -0.3                     -0.004363075397050999
0.22000000000000003       -0.3                     -0.004454322719147585
0.22500000000000003       -0.3                     -0.004543934492874385
0.23000000000000004       -0.3                     -0.004630947017286975
0.23500000000000004       -0.3                     -0.004715354174394141
0.24000000000000005       -0.3                     -0.004797155964195885
0.24500000000000005       -0.3                     -0.0048765512221694675
0.25000000000000006       -0.3                     -0.004953420835967799
0.25500000000000006       -0.3                     -0.005027504413639838
0.26000000000000006       -0.3                     -0.005098801955185578
0.26500000000000007       -0.3                     -0.005167313460605026
0.2700000000000001        -0.3                     -0.005233001056108165
0.2750000000000001        -0.3                     -0.005295078769142063
0.27999999999999997       -0.3                     -0.005353302612724662
0.285                     -0.3                     -0.00540767258685596
0.29                      -0.3                     -0.005458188691535963
0.295                     -0.3                     -0.005504979948910552
0.3                       -0.3                     -0.005548176062181989
-0.3                      -0.295                   4.911918630735323E-4
-0.295                    -0.295                   4.8788918865946666E-4
-0.29                     -0.295                   4.842706820075613E-4
-0.285                    -0.295                   4.8033634311781665E-4
-0.27999999999999997      -0.295                   4.760916393097568E-4
-0.27499999999999997      -0.295                   4.7156342381812365E-4
-0.27                     -0.295                   4.6675461674395376E-4
-0.265                    -0.295                   4.616663221913902E-4
-0.26                     -0.295                   4.5633260840243167E-4
-0.255                    -0.295                   4.507256113325772E-4
-0.25                     -0.295                   4.4484533098182666E-4
-0.245                    -0.295                   4.386917673501803E-4
-0.24                     -0.295                   4.32264920437638E-4
-0.235                    -0.295                   4.256295978358834E-4
-0.22999999999999998      -0.295                   4.1882524612953977E-4
-0.22499999999999998      -0.295                   4.1180520620477483E-4
-0.21999999999999997      -0.295                   4.045101257325437E-4
-0.21499999999999997      -0.295                   3.9710981816277894E-4
-0.21                     -0.295                   3.896070448935844E-4
-0.205                    -0.295                   3.818001986139502E-4
-0.19999999999999998      -0.295                   3.73676344517273E-4
-0.195                    -0.295                   3.6523548260355244E-4
-0.19                     -0.295                   3.565086578511286E-4
-0.185                    -0.295                   3.47626008210356E-4
-0.18                     -0.295                   3.3852719024916173E-4
-0.175                    -0.295                   3.289611842143839E-4
-0.16999999999999998      -0.295                   3.189515676331795E-4
-0.16499999999999998      -0.295                   3.0852017586338555E-4
-0.15999999999999998      -0.295                   2.9747529349220223E-4
-0.155                    -0.295                   2.8581692051962975E-4
-0.15                     -0.295                   2.735450569456678E-4
-0.145                    -0.295                   2.6060569015612286E-4
-0.13999999999999999      -0.295                   2.469923557569732E-4
-0.13499999999999998      -0.295                   2.3273337216740843E-4
-0.12999999999999998      -0.295                   2.1761973256121032E-4
-0.12499999999999997      -0.295                   2.01485357248772E-4
-0.12                     -0.295                   1.8434049306978489E-4
-0.11499999999999999      -0.295                   1.661890981008274E-4
-0.10999999999999999      -0.295                   1.4701384643575377E-4
-0.10499999999999998      -0.295                   1.2681473807456397E-4
-0.09999999999999998      -0.295                   1.0557813723863254E-4
-0.09499999999999997      -0.295                   8.309646030212785E-5
-0.09                     -0.295                   5.93362967845129E-5
-0.08499999999999999      -0.295                   3.429764668578755E-5
-0.07999999999999999      -0.295                   7.980021729013945E-6
-0.07499999999999998      -0.295                   -1.970436049209585E-5
-0.06999999999999998      -0.295                   -4.882024165037504E-5
-0.06499999999999997      -0.295                   -7.936762174582342E-5
-0.06                     -0.295                   -1.1134650077844089E-4
-0.05499999999999999      -0.295                   -1.447573447696575E-4
-0.04999999999999999      -0.295                   -1.7978193536074473E-4
-0.044999999999999984     -0.295                   -2.1655501284616072E-4
-0.03999999999999998      -0.295                   -2.5507657722590544E-4
-0.034999999999999976     -0.295                   -2.9534662849997915E-4
-0.02999999999999997      -0.295                   -3.3728961619473624E-4
-0.024999999999999967     -0.295                   -3.809749144684678E-4
-0.019999999999999962     -0.295                   -4.2640276551767376E-4
-0.014999999999999958     -0.295                   -4.735731693423538E-4
-0.010000000000000009     -0.295                   -5.224813590178793E-4
-0.0050000000000000044    -0.295                   -5.732702531997549E-4
0                         -0.295                   -6.2615908916913E-4
0.0050000000000000044     -0.295                   -6.811478669260046E-4
0.010000000000000009      -0.295                   -7.382357614155427E-4
0.015000000000000013      -0.295                   -7.972982922558151E-4
0.020000000000000018      -0.295                   -8.582496549209972E-4
0.025000000000000022      -0.295                   -9.210898494110885E-4
0.030000000000000027      -0.295                   -9.85818875726089E-4
0.03500000000000003       -0.295                   -0.0010524243468834225
0.040000000000000036      -0.295                   -0.0011209580336148774
0.04500000000000004       -0.295                   -0.0011917526967007755
0.050000000000000044      -0.295                   -0.0012648083361411172
0.05499999999999999       -0.295                   -0.001340124951935902
0.06                      -0.295                   -0.0014174709397984189
0.065                     -0.295                   -0.0014965342054405672
0.07                      -0.295                   -0.0015773138473817
0.07500000000000001       -0.295                   -0.0016598098656218172
0.08000000000000002       -0.295                   -0.0017440222601609182
0.08500000000000002       -0.295                   -0.0018298230864761495
0.09000000000000002       -0.295                   -0.001917553431747212
0.09500000000000003       -0.295                   -0.002007247819717435
0.10000000000000003       -0.295                   -0.002098906250386823
0.10500000000000004       -0.295                   -0.002192347563684472
0.11000000000000004       -0.295                   -0.0022869113867604015
0.11500000000000005       -0.295                   -0.0023825377694861264
0.12                      -0.295                   -0.002479226711861643
0.125                     -0.295                   -0.0025769782138869556
0.13                      -0.295                   -0.0026756603248680507
0.135                     -0.295                   -0.002775230034512241
0.14                      -0.295                   -0.0028757726920122704
0.14500000000000002       -0.295                   -0.002977288297368139
0.15000000000000002       -0.295                   -0.003079736128789963
0.15500000000000003       -0.295                   -0.003182373550863112
0.16000000000000003       -0.295                   -0.003284926749629352
0.16500000000000004       -0.295                   -0.0033873957250886845
0.17000000000000004       -0.295                   -0.0034897804772411074
0.17500000000000004       -0.295                   -0.003592071231103942
0.18                      -0.295                   -0.003693859859948954
0.185                     -0.295                   -0.003794943897123177
0.19                      -0.295                   -0.003895323342626611
0.195                     -0.295                   -0.003994998196459258
0.2                       -0.295                   -0.004093711568814624
0.20500000000000002       -0.295                   -0.004190924754374186
0.21000000000000002       -0.295                   -0.004286644210762912
0.21500000000000002       -0.295                   -0.0043808699379808014
0.22000000000000003       -0.295                   -0.004473601936027855
0.22500000000000003       -0.295                   -0.004564817140511316
0.23000000000000004       -0.295                   -0.004653506440822725
0.23500000000000004       -0.295                   -0.004739590373828714
0.24000000000000005       -0.295                   -0.004823068939529279
0.24500000000000005       -0.295                   -0.004903942137924423
0.25000000000000006       -0.295                   -0.004981984857379683
0.25500000000000006       -0.295                   -0.00505719452213298
0.26000000000000006       -0.295                   -0.0051296181507599825
0.26500000000000007       -0.295                   -0.005199303481330425
0.2700000000000001        -0.295                   -0.005266311397492264
0.2750000000000001        -0.295                   -0.005329465444202804
0.27999999999999997       -0.295                   -0.005388765621462044
0.285                     -0.295                   -0.0054442119292699865
0.29                      -0.295                   -0.005495804367626633
0.295                     -0.295                   -0.005543542936531978
0.3                       -0.295                   -0.005587367844975762
-0.3                      -0.29                    4.947098158249009E-4
-0.295                    -0.29                    4.913832061704819E-4
-0.29                     -0.29                    4.8774076427822357E-4
-0.285                    -0.29                    4.8378249014812563E-4
-0.27999999999999997      -0.29                    4.7950583528076456E-4
-0.27499999999999997      -0.29                    4.749407097451532E-4
-0.27                     -0.29                    4.700949926270052E-4
-0.265                    -0.29                    4.6496868392632043E-4
-0.26                     -0.29                    4.595774615570884E-4
-0.255                    -0.29                    4.5396460979958697E-4
-0.25                     -0.29                    4.480784747611896E-4
-0.245                    -0.29                    4.419190564418963E-4
-0.24                     -0.29                    4.354977717949416E-4
-0.235                    -0.29                    4.288815344885273E-4
-0.22999999999999998      -0.29                    4.2208060022503143E-4
-0.22499999999999998      -0.29                    4.150866487122539E-4
-0.21999999999999997      -0.29                    4.0790064763740344E-4
-0.21499999999999997      -0.29                    4.006094194650193E-4
-0.21                     -0.29                    3.9321296419510173E-4
-0.205                    -0.29                    3.8560651011908844E-4
-0.19999999999999998      -0.29                    3.776829341872086E-4
-0.195                    -0.29                    3.694610870429444E-4
-0.19                     -0.29                    3.610943592366696E-4
-0.185                    -0.29                    3.525832421490474E-4
-0.18                     -0.29                    3.438977455841831E-4
-0.175                    -0.29                    3.3480619128969165E-4
-0.16999999999999998      -0.29                    3.252672075999508E-4
-0.16499999999999998      -0.29                    3.1527240585497036E-4
-0.15999999999999998      -0.29                    3.0465591939818576E-4
-0.155                    -0.29                    2.9342594234001195E-4
-0.15                     -0.29                    2.816242850543495E-4
-0.145                    -0.29                    2.6923113880282897E-4
-0.13999999999999999      -0.29                    2.561885993999074E-4
-0.13499999999999998      -0.29                    2.4249804728541257E-4
-0.12999999999999998      -0.29                    2.2795615316683216E-4
-0.12499999999999997      -0.29                    2.1239352334201142E-4
-0.12                     -0.29                    1.9581015781095057E-4
-0.11499999999999999      -0.29                    1.7817259503565444E-4
-0.10999999999999999      -0.29                    1.594385989561721E-4
-0.10499999999999998      -0.29                    1.396807461805736E-4
-0.09999999999999998      -0.29                    1.1894703301767557E-4
-0.09499999999999997      -0.29                    9.698833725403796E-5
-0.09                     -0.29                    7.375115490929009E-5
-0.08499999999999999      -0.29                    4.923548598343171E-5
-0.07999999999999999      -0.29                    2.3441330476463006E-5
-0.07499999999999998      -0.29                    -3.7586263580046028E-6
-0.06999999999999998      -0.29                    -3.248106587248944E-5
-0.06499999999999997      -0.29                    -6.263500432414364E-5
-0.06                     -0.29                    -9.422044171296686E-5
-0.05499999999999999      -0.29                    -1.271815049174694E-4
-0.04999999999999999      -0.29                    -1.6176413338271276E-4
-0.044999999999999984     -0.29                    -1.9809524874228493E-4
-0.03999999999999998      -0.29                    -2.361748509961859E-4
-0.034999999999999976     -0.29                    -2.760029401444157E-4
-0.02999999999999997      -0.29                    -3.1761635796586377E-4
-0.024999999999999967     -0.29                    -3.610440764648196E-4
-0.019999999999999962     -0.29                    -4.0621434773924973E-4
-0.014999999999999958     -0.29                    -4.531271717891542E-4
-0.010000000000000009     -0.29                    -5.017199678252062E-4
-0.0050000000000000044    -0.29                    -5.523054052578253E-4
0                         -0.29                    -6.049907844779437E-4
0.0050000000000000044     -0.29                    -6.597761054855615E-4
0.010000000000000009      -0.29                    -7.166613682806788E-4
0.015000000000000013      -0.29                    -7.75656222607745E-4
0.020000000000000018      -0.29                    -8.366137667374825E-4
0.025000000000000022      -0.29                    -8.994601426921295E-4
0.030000000000000027      -0.29                    -9.641953504716856E-4
0.03500000000000003       -0.29                    -0.0010307843631644318
0.040000000000000036      -0.29                    -0.0010995478376957684
0.04500000000000004       -0.29                    -0.0011705722885815477
0.050000000000000044      -0.29                    -0.0012438577158217713
0.05499999999999999       -0.29                    -0.0013194041194164376
0.06                      -0.29                    -0.0013971418090497423
0.065                     -0.29                    -0.0014766437660832727
0.07                      -0.29                    -0.0015578620994157867
0.07500000000000001       -0.29                    -0.0016407968090472853
0.08000000000000002       -0.29                    -0.0017254857663283399
0.08500000000000002       -0.29                    -0.0018121153030415554
0.09000000000000002       -0.29                    -0.0019007088824539338
0.09500000000000003       -0.29                    -0.0019912665045654756
0.10000000000000003       -0.29                    -0.00208378816937618
0.10500000000000004       -0.29                    -0.0021782528138980847
0.11000000000000004       -0.29                    -0.0022737912166369847
0.11500000000000005       -0.29                    -0.002370392179025679
0.12                      -0.29                    -0.002468055701064166
0.125                     -0.29                    -0.0025668580515345978
0.13                      -0.29                    -0.002666976118053317
0.135                     -0.29                    -0.0027680671324278746
0.14                      -0.29                    -0.002870131094658272
0.14500000000000002       -0.29                    -0.002973168004744507
0.15000000000000002       -0.29                    -0.0030771778626865823
0.15500000000000003       -0.29                    -0.0031814320472802605
0.16000000000000003       -0.29                    -0.0032853894926478276
0.16500000000000004       -0.29                    -0.003389262714708485
0.17000000000000004       -0.29                    -0.0034930517134622342
0.17500000000000004       -0.29                    -0.0035973333261606253
0.18                      -0.29                    -0.0037010025850596645
0.185                     -0.29                    -0.0038039672522879164
0.19                      -0.29                    -0.0039062273278453797
0.195                     -0.29                    -0.0040077828117320545
0.2                       -0.29                    -0.004108633703947939
0.20500000000000002       -0.29                    -0.004207356914561299
0.21000000000000002       -0.29                    -0.0043045610469004915
0.21500000000000002       -0.29                    -0.004400271450068849
0.22000000000000003       -0.29                    -0.004494950130528671
0.22500000000000003       -0.29                    -0.004587921574044326
0.23000000000000004       -0.29                    -0.004678287650254559
0.23500000000000004       -0.29                    -0.004766048359159368
0.24000000000000005       -0.29                    -0.004851203700758756
0.24500000000000005       -0.29                    -0.004933753675052722
0.25000000000000006       -0.29                    -0.005013649155535942
0.25500000000000006       -0.29                    -0.005089984907370502
0.26000000000000006       -0.29                    -0.0051635346230787665
0.26500000000000007       -0.29                    -0.005234969828600015
0.2700000000000001        -0.29                    -0.005303054078438497
0.2750000000000001        -0.29                    -0.005367284458825679
0.27999999999999997       -0.29                    -0.005427660969761563
0.285                     -0.29                    -0.0054841836112461476
0.29                      -0.29                    -0.005536852383279434
0.295                     -0.29                    -0.005585667285861425
0.3                       -0.29                    -0.005630628318992114
-0.3                      -0.285                   4.985310227293157E-4
-0.295                    -0.285                   4.951804778345439E-4
-0.29                     -0.285                   4.915141007019323E-4
-0.285                    -0.285                   4.875318913314813E-4
-0.27999999999999997      -0.285                   4.8321689848749726E-4
-0.27499999999999997      -0.285                   4.786148629079077E-4
-0.27                     -0.285                   4.7373223574578144E-4
-0.265                    -0.285                   4.685690170011186E-4
-0.26                     -0.285                   4.6312520667391897E-4
-0.255                    -0.285                   4.574453305264526E-4
-0.25                     -0.285                   4.515533408004083E-4
-0.245                    -0.285                   4.4536100473237424E-4
-0.24                     -0.285                   4.389328818258895E-4
-0.235                    -0.285                   4.3232006196232306E-4
-0.22999999999999998      -0.285                   4.255225451416749E-4
-0.22499999999999998      -0.285                   4.1854450884197997E-4
-0.21999999999999997      -0.285                   4.1146758716450993E-4
-0.21499999999999997      -0.285                   4.042854383895064E-4
-0.21                     -0.285                   3.9699806251696943E-4
-0.205                    -0.285                   3.8960053129294864E-4
-0.19999999999999998      -0.285                   3.8187723352586616E-4
-0.195                    -0.285                   3.740214329337716E-4
-0.19                     -0.285                   3.660262376806472E-4
-0.185                    -0.285                   3.57886653146175E-4
-0.18                     -0.285                   3.4960424460377647E-4
-0.175                    -0.285                   3.4098714204957144E-4
-0.16999999999999998      -0.285                   3.319226101001171E-4
-0.16499999999999998      -0.285                   3.224106487554133E-4
-0.15999999999999998      -0.285                   3.1240661442045325E-4
-0.155                    -0.285                   3.016830004426736E-4
-0.15                     -0.285                   2.905100423387824E-4
-0.145                    -0.285                   2.7868769108349014E-4
-0.13999999999999999      -0.285                   2.662159466767966E-4
-0.13499999999999998      -0.285                   2.530948735962704E-4
-0.12999999999999998      -0.285                   2.3912472496530752E-4
-0.12499999999999997      -0.285                   2.2413384062810448E-4
-0.12                     -0.285                   2.0812222058466128E-4
-0.11499999999999999      -0.285                   1.910898648349777E-4
-0.10999999999999999      -0.285                   1.7297902822493774E-4
-0.10499999999999998      -0.285                   1.5376396381181002E-4
-0.09999999999999998      -0.285                   1.336067358021498E-4
-0.09499999999999997      -0.285                   1.121710212113792E-4
-0.09                     -0.285                   8.945682003949835E-5
-0.08499999999999999      -0.285                   6.546413228650702E-5