% Model:              multi_geometry.mph
% Version:            COMSOL 5.4.0.346
% Date:               Sep 12 2019, 18:10
% Dimension:          2
% Nodes:              1104
% Expressions:        1
% Description:        Electric potential
% Length unit:        m
% X                       Y                        V (V)
0.25504170868138104       0.32073560206340856      -0.3136764491962137
0.2431599170070494        0.3252432478881899       -0.3263064302192724
0.2481503935195624        0.31347366334414223      -0.32488853201058876
0.25                      0.3                      -0.3229287028883226
0.26111293899945875       0.30496878895561835      -0.3073188111552741
0.4457531752861293        -0.329487632828159       0.07855830502364186
0.5                       -0.3666666666666665      0.08296611409836271
0.5                       -0.2999999999999998      0.07069859096088327
0.45471817284712374       -0.4565346647487383      0.09253238075582805
0.5                       -0.5                     0.09243903397532369
0.5                       -0.4333333333333331      0.09010344176097491
0.43333333333333335       -0.5                     0.09475272439415909
0.24954237027722526       0.33498646021298384      -0.31370534659915067
0.23534899448270122       0.3353616824976125       -0.32723430632347694
0.23792315844347423       0.3450329615032347       -0.31691314151779737
0.22522775693780267       0.34316897357926335      -0.32761228547558485
0.24815277835754063       0.2865348621823033       -0.3206422762363237
0.2579051302757295        0.28735334352991865      -0.3059330387781426
0.24316897357609515       0.2747722430567758       -0.31833525351562075
0.2568562789586552        0.27724311665098805      -0.3003398293676706
0.4444510006802234        -0.26557025100114195     0.0642058348140662
0.5                       -0.23333333333333317     0.05291056206387073
0.441063576252844         -0.3986809857786305      0.08893663642895888
0.3991939546494412        -0.4506590046317276      0.09650596016049783
0.3666666666666667        -0.5                     0.10154714285405338
0.4530145494119931        0.3969127517042229       -0.23860691886373522
0.5                       0.3666666666666667       -0.23130782905513572
0.5                       0.43333333333333335      -0.2411178506017758
0.45731174622634885       0.4539753413115875       -0.24398819828946894
0.5                       0.5                      -0.24412583247557332
0.2266978005356906        0.3564415401103137       -0.31359279712081417
0.21346513780666976       0.3481527783606241       -0.3274150012727394
0.4348502495834785        0.5                      -0.24686371897297862
0.44533007381499107       0.3342817258286071       -0.22669904158927578
0.5                       0.30000000000000004      -0.21309022357151827
0.23536168249824432       0.26465100551793075      -0.31603143346741713
0.24771749075047605       0.26103108708129497      -0.2946089264780212
0.4439096508835942        -0.20088685067876244     0.04423278333103093
0.5                       -0.16666666666666652     0.02936418635817234
0.3330864298302063        -0.44906605261407545     0.10546407659998151
0.30000000000000004       -0.5                     0.11233483541118038
0.08633794716320556       -0.2504555138675994      0.19594978867430196
0.11172325301642554       -0.2533700624062553      0.17587496705928318
0.0963055567261826        -0.22693027559569398     0.19158703046521294
0.1                       -0.2                     0.18671805499648586
0.12306639073389224       -0.21614239332902066     0.1665450450160162
0.2                       0.35                     -0.32658158938626036
0.20764266092389047       0.3610808155106546       -0.31343633833463574
0.19691021644235102       0.35924901863081526      -0.3146380318676718
0.1865263366588009        0.3481503935203859       -0.32516037270695614
0.369700499166957         0.5                      -0.2540962077279132
0.39869393213627274       0.43963062152038157      -0.2489639070228533
0.17475675211304295       0.34315991700777043      -0.3233856791087517
0.1659922269021729        0.34858358534812905      -0.30852669166886126
0.1646383175022058        0.3353489944825195       -0.3213073427665638
0.17907652927547685       0.35823513816955027      -0.30868877925163635
0.4437180023450207        0.26866860678997234      -0.20455183735587257
0.5                       0.2333333333333334       -0.18580534721471656
0.22524324789347644       0.25684008299604255      -0.31388727056038485
0.2339567626535285        0.25047687610868535      -0.2929951356008989
0.44462879609121764       -0.13493989395622524     0.01804685811527579
0.5                       -0.09999999999999987     1.7694511314959751E-4
0.11989337233582202       -0.19352360802454407     0.1647147496176575
0.09630078703988074       -0.17305267331441693     0.18197417922900871
0.08808683464888536       -0.27431445984636676     0.18779260955520324
0.07072336499611201       -0.2706979889645153      0.19987492987940486
0.2664508741095563        -0.44828919043586224     0.11827618552356488
0.2333333333333334        -0.5                     0.12613112958837613
0.22511079980464677       0.24725810560390898      -0.294212020938435
0.21347366335527598       0.2518496064835531       -0.31205265296024637
0.33617198107600005       0.4540325266355856       -0.25899435621698874
0.30807757676197456       0.5                      -0.26205008815717695
0.15501746677815126       0.33862346615948835      -0.3049891933155244
0.15683102642000213       0.325227756936546        -0.31906362594039395
0.4449645602047109        -0.06814684749250101     -0.01403060395028083
0.5                       -0.033333333333333215    -0.03403179762988443
0.4444598111411409        0.20182699264419215      -0.17228295173403885
0.5                       0.16666666666666674      -0.1510168415672303
0.4460687682690298        -5.34777914067063E-4     -0.051356517188187865
0.5                       0.03333333333333344      -0.07204814183388628
0.4463409647344325        0.13473758170288624      -0.13343389890080934
0.5                       0.10000000000000009      -0.11195609171538935
0.4470539856273736        0.06726319685226055      -0.09204641424786508
0.11017228585709089       -0.15944889015948543     0.1593613403346786
0.08631983401437753       -0.1495135042240966      0.1780301855309634
0.050486495768534805      -0.2863198340186873      0.20318602396711619
0.06563728568384822       -0.29716421650355823     0.19188429143659855
0.047457270774315614      -0.30404597587411913     0.19606748445172564
0.02694732667040509       -0.296300787044128       0.20574048358518213
0.1998990679815147        -0.44790587987618835     0.13359949967250306
0.16666666666666674       -0.5                     0.1412525225611115
0.2                       0.25                     -0.31059241759888045
0.20586726069312075       0.2380955535415774       -0.2822489050414829
0.18653486220079685       0.25184722163728795      -0.3097520295754204
0.1927203148712995        0.2375381811558949       -0.2790166817638266
0.1747722430654559        0.25683102641883226      -0.30958617793848164
0.17426591612799117       0.2458837513053867       -0.2846254932433092
0.251400775055576         0.5                      -0.26534453278033976
0.27633801022131604       0.45214536831399155      -0.26733510094978025
0.14573176121816317       0.32542463269046495      -0.2998471945010691
0.15184722163857856       0.31346513780381835      -0.31679665833309545
0.15184960647832857       0.2865263366633947       -0.3125147271125095
0.1450792480869241        0.28001553005985363      -0.2922373230222471
0.15684008299122457       0.27475675211476125      -0.311026186408325
0.0972842345672161        -0.13279731313523352     0.15244350801356907
0.07069798896443377       -0.12927663500380657     0.17500227400734017
0.014248034772710456      -0.31884557547195347     0.19711364316562277
0                         -0.30000000000000004     0.2075012735932892
0.13211208355375018       -0.4475392357310118      0.14962647550457045
0.10000000000000009       -0.5                     0.15525217242452277
0.1646510055176646        0.26463831750202177      -0.3100236268393495
0.1609431238741972        0.2549343188524372       -0.2858072482039125
0.19547064654496848       0.5                      -0.25928248391216374
0.21988482011059998       0.4462290343891676       -0.2689878534459129
0.15068247804479645       0.2665200303400104       -0.28741955321880186
0.15000000000000002       0.3                      -0.3145115862965709
0.13875302244513718       0.30769018202862136      -0.2918087867627153
0.1413109000215264        0.2956897859201031       -0.294559282544893
0.07695496306512026       -0.11019400570033336     0.14790565500191366
0.05045551387511133       -0.11366205284118433     0.17324811865908404
-0.0269302755764738       -0.2963055567315573      0.2082005973179509
-0.011684362012244764     -0.32118219849092483     0.19771977522705678
0.06361724034501205       -0.449635380664322       0.1629391617198053
0.03333333333333344       -0.5                     0.16535682031021057
0.13946992891719734       0.5                      -0.24139548040029765
0.16317736644629613       0.44603528825529193      -0.25577758041131204
0.05143193466469167       -0.09333801044384929     0.14548592409242533
0.026930275610756914      -0.10369444327802953     0.17298421107413278
-0.050455513859739426     -0.2863379471677989      0.20787811545333706
-0.05134499764614017      -0.31390644805504087     0.1967157888428663
-0.00550360330972927      -0.4544697662400344      0.1700919832903869
-0.033333333333333215     -0.5                     0.1696042712333862
-0.07069798896477424      -0.27072336499585314     0.20665096590171445
-0.07718257821592064      -0.29124552155765737     0.19741110310197255
0.08246356306098745       0.5                      -0.21385566780301388
0.10329513788880917       0.4442462212614952       -0.2274683830744648
0.022671358839765406      -0.08181137183948207     0.1432811218690614
0                         -0.1                     0.17434187861111203
-0.06622995661279181      -0.45203230905138664     0.17084210239589567
-0.09999999999999987      -0.5                     0.1679586459399477
-0.08631983402395167      -0.2504864957595339      0.2045810727644801
-0.1014385855206453       -0.27091417538330875     0.192691763607408
0.02072903914949009       0.5                      -0.17983242508048555
0.04294278636741815       0.44079182071350825      -0.1922470912408935
-0.02694732668478997      -0.10369921295989733     0.17717719351327182
-0.041247843783352486     -0.08839513103334942     0.1537446259160294
-0.05048649577603817      -0.1136801659857013      0.18080562818223425
-0.012478397357546073     -0.07757164899739856     0.14345246093988415
-0.0675652832526957       -0.10120636210332554     0.15899339566966703
-0.07072336499543919      -0.1293020110348117      0.18500368169575304
-0.4567913406430205       -0.4546336768456512      0.13600049515427048
-0.5                      -0.5                     0.13605105339738335
-0.4333333333333331       -0.5                     0.13734921463745944
-0.5                      -0.43290235670178057     0.13472205698390224
-0.13050577585902615      -0.44975046263132296     0.1665486230123178
-0.16666666666666652      -0.5                     0.162150196281664
-0.09630078704955211      -0.22694732665102085     0.20176117339189392
-0.11162420076480625      -0.2419384258660758      0.191163321998361
-0.19749821313304064      -0.44945236902263613     0.15892249253930293
-0.23333333333333317      -0.5                     0.15454224406348818
-0.26431982823745387      -0.44846274586862095     0.15068802834040373
-0.2999999999999998       -0.5                     0.14711333341046318
-0.3297365748847356       -0.4473214164451748      0.14362498105685764
-0.3666666666666665       -0.5                     0.14114585981554306
-0.1                      -0.2                     0.19804307227995685
-0.12396081798003962      -0.2114045885538236      0.1829945020865866
-0.04395174708434915      0.5                      -0.14529287741912247
-0.02031470133447142      0.4455046582473379       -0.15620111828736685
-0.09037988901563253      -0.12193535164463107     0.16617381322516697
-0.08633794715863112      -0.14954448612457286     0.18942164690519978
-0.4000369900760059       -0.44110917356207735     0.1380048289410679
-0.45058637980576305      -0.39915685396439793     0.1337935880023039
-0.5                      -0.36580471340356113     0.13065337746633005
-0.09630555672219708      -0.1730697243900535      0.19376456295472566
-0.11865742144992783      -0.17748633104829392     0.1788360964639405
-0.08001659259986293      0.44708663091626827      -0.12605211225695026
-0.10910149750087073      0.5                      -0.11473048338217602
-0.14316562733405683      0.44659512068456003      -0.09900991429531074
-0.1742512479173923       0.5                      -0.0894130242427303
-0.10749352721182064      -0.14813884169892044     0.17326306840639535
-0.44823203264817085      -0.3334888627153196      0.12856764177825405
-0.5                      -0.2987070701053417      0.1236478578679433
-0.2079649033930252       0.4463749873260541       -0.07665219147051745
-0.23940099833391382      0.5                      -0.06937114878327136
-0.4470244698117181       -0.2673051068703995      0.12029876937204674
-0.5                      -0.23160942680712227     0.11351805212777628
-0.27303955219715936      0.4461993836137655       -0.059362085589157045
-0.3045507487504353       0.5                      -0.05430349489323263
-0.4450787622396466       -0.20095298529339578     0.10887070783109241
-0.5                      -0.1645161246162844      0.1002577121459302
-0.45926866285016177      0.4588512382961554       -0.035683282839232076
-0.4348502495834785       0.5                      -0.037722109417167
-0.5                      0.5                      -0.03570362467817685
-0.5                      0.4381720296496474       -0.03389647949120649
-0.33928890677321494      0.4455981061382376       -0.04663132891455496
-0.3697004991669569       0.5                      -0.04385430184138852
-0.4477083644101297       -0.1377063372339346      0.0949425108805571
-0.5                      -0.10191283033618759     0.08532925047889107
-0.4048694952638775       0.44390670808304344      -0.03847538943014661
-0.5                      0.38852964326428197      -0.029871842765168185
-0.4568558738834599       0.41267962810593517      -0.032961484296894654
-0.4552357566877831       -0.07801586224032275     0.07951412544167837
-0.5                      -0.051041075430221294    0.07174896028519578
-0.4632156917664795       -0.03481703902375565     0.0674062153314141
-0.5                      -0.012010461712502196    0.06071358267849436
-0.5                      0.3509019841646184       -0.025362692324064656
-0.46245199833836736      0.3711539575672034       -0.028549493340081767
-0.47116844587976037      0.004482210953821631     0.0560033837600308
-0.5                      0.023780695181810696     0.050318417386367144
-0.5                      0.3163924638397533       -0.02020592079772502
-0.46824523189459616      0.3353881282589395       -0.02355555997464223
-0.47325806624338035      0.03762765988365764      0.04626793573792017
-0.5                      0.0576914457124208       0.04039087861069841
-0.47396812503315067      0.30070337285704996      -0.017792222614566987
-0.5                      0.2836853828388739       -0.014530207845894988
-0.47375903599655367      0.0693128223272741       0.036955072208957655
-0.5                      0.09066188888971505      0.030827041895963858
-0.4761606598883506       0.2693067903524635       -0.011970561648661575
-0.5                      0.25420358144074906      -0.008892447211574134
-0.4740028108491635       0.10201630431487296      0.027478241913201754
-0.5                      0.12217391970171043      0.021942970880754725
-0.4772611211619486       0.24113335829097235      -0.0063662567009874415
-0.5                      0.2277845725716381       -0.003523481406556055
-0.5                      0.2022639990760211       0.0019452989648248095
-0.47811247605018314      0.21407476489614574      -7.427843835075085E-4
-0.5                      0.1767418035412165       0.007810279536565902
-0.4758047889972259       0.18624210534330476      0.005350338167908302
-0.47569780269332795      0.1318628542705073       0.019131683801175397
-0.5                      0.1507364784459827       0.014292012741881514
-0.4779978772595557       0.15852455097397683      0.012113501636637226
-0.38586040220707457      0.21414467299919995      0
-0.38451098632735314      0.21819671094513576      -0.0016735008906969598
-0.3899088972240704       0.21726758943123287      0
-0.3897606563531771       0.2218136396868983       -0.0018767514390910212
-0.39461394487569373      0.21926111134379153      0
-0.3965083220300153       0.22479057386900447      -0.0022514316528622486
-0.4                      0.22                     0
-0.4012672790607552       0.22412136600449944      -0.0018043811024660605
-0.40538946533488973      0.21926015740859933      0
-0.4084243874309287       0.222171857805469        -0.0014013380550524444
-0.41009729915415105      0.2172639668034777       0
-0.3827360331977077       0.21009729915617775      0
-0.3802954692749198       0.21357352285998496      -0.001446510859947037
-0.38073984259263927      0.20538946533931604      0
-0.3777328714609523       0.20822408902636852      -0.001061465633974293
-0.38                     0.2                      0
-0.3753936719351194       0.20220099712674178      -7.802506105872571E-4
-0.38073888865413963      0.19461394488309225      0
-0.3762254606698865       0.19530666390994372      -1.1119831391775354E-4
-0.3827324105668557       0.1899088972273413       0
-0.3785916511735822       0.18941385418824877      4.324972758616313E-4
-0.4141446729992155       0.21413959779291         0
-0.4158149893251022       0.21904767286264504      -0.0013063616919730227
-0.41916291406540784      0.21484648761710864      -8.448405786603788E-4
-0.41726758943239994      0.21009110277393264      0
-0.3858553270008823       0.18586040220699224      0
-0.3822257467511712       0.18437409012238823      8.859036264587748E-4
-0.4210743516272154       0.21071183587108883      -4.5707550518532937E-4
-0.4192611113450147       0.20538605511993213      0
-0.3899027008471901       0.1827360331957379       0
-0.38673164504345114      0.18038539495463152      0.0012890728790945155
-0.42419184559688033      0.20313142366555542      9.830593802132832E-5
-0.42000000000000004      0.2                      0
-0.39461053466816814      0.1807398425905451       0
-0.39287696647593967      0.1777986309095831       0.0014670651427193672
-0.4236675662139019       0.1984006665967489       4.1252051202504E-4
-0.4192601574080539       0.19461053466316122      0
-0.39746210634851653      0.17622157662443608      0.0018635287443448752
-0.4                      0.18000000000000002      0
-0.42186816932169         0.19185957660551659      7.938625038477392E-4
-0.4172639668029108       0.1899027008448797       0
-0.405386055121886        0.18073888865553173      0
-0.40359839031050193      0.17559376393985177      0.002272457974287585
-0.4193800760132108       0.1862319121730317       0.0012730884198585133
-0.41413959779292686      0.18585532700080135      0
-0.4100911027749048       0.18273241056816822      0
-0.4109415919636701       0.1787003976029076       0.0018352310244328558
-0.4148883723723489       0.180317605707482        0.001979142603152512
0.25615118090485944       0.32918531321286976      -0.3097426845534806
0.26136479994274475       0.31451409377920475      -0.3072002790799999
0.2663822520326891        0.321261692092636        -0.30101880842529694
0.26079567625683925       0.3371748751515705       -0.30258870800778687
0.24570270278226602       0.34240055680335907      -0.31276905419147494
0.2703928391346949        0.33042907667945376      -0.2959517525512474
0.27391127934597803       0.31154920413822906      -0.2933354237067372
0.2813170524460612        0.3210006560863159       -0.28702146177577564
0.27570871198551          0.30054974133599827      -0.2894279643412628
0.26442026107152766       0.2943950315673385       -0.30045710496029193
0.39010623580593995       -0.2955977434839365      0.07729897748566039
0.39658778215477836       -0.35034613582038676     0.08673531614305148
0.23511526613983028       0.3532938384945655       -0.31218589259537904
0.2699236513812872        0.34100591700428556      -0.29417985521240864
0.2580784781094245        0.34558274495608277      -0.3015419048399615
0.24762051259850484       0.3510389348468813       -0.30611859683895254
0.28640072406558714       0.337686889479908        -0.2827981239845357
0.21897807834533262       0.36257639540218023      -0.31046961793500977
0.2910697061188359        0.30688378179751286      -0.2768324547552416
0.3035382533028095        0.31802339257555284      -0.2698410511675789
0.3186525902026854        0.3400358160795833       -0.26393448911782613
0.27642024633544715       0.29111049304559955      -0.28534972428992394
0.2873178400418125        0.2943911485116912       -0.2762193977103582
0.27066462117176193       0.2806136422229765       -0.28599113369098356
0.38903236939572394       0.3677984044701543       -0.24360307568674358
0.35223451408868345       0.3389048356425803       -0.24931843830806635
0.33594241798927976       0.30959432122347663      -0.24932650969390338
0.25498597744785007       0.2672578839367791       -0.29328442185901826
0.26626019292295383       0.2669267249771748       -0.28033653041240925
0.24274913830624423       0.2537737713432333       -0.28984869737390584
0.3869369629781146        -0.23411590550592334     0.061604169454241485
0.33075770458599085       -0.2628022625324705      0.08037468234798693
0.15078195224098986       -0.20671644470391234     0.14271546983658298
0.18484400197539227       -0.1912268186597026      0.11554128191957916
0.14733466443643628       -0.18034918163684735     0.13677825339322733
0.16506265752480026       -0.15971823478269026     0.11495284328216036
0.1334451984783226        -0.15853325589863856     0.13777841874305843
0.12155344745608007       -0.17279206645919237     0.15537948790244385
0.1811940879086221        -0.22658957977373995     0.12779500334158234
0.2121801705494607        -0.21805288352216257     0.10924536243817437
0.14693140968767976       -0.23250147113116987     0.15034578494167047
0.12448605341267902       -0.23718256051880374     0.16698091028488068
0.3662958575878634        -0.39967221730654623     0.09693301045448775
0.33295833086313253       -0.3346951555717424      0.09450077725684926
0.28493206922248965       -0.29513788436555616     0.0992868074118353
0.10346559560693228       -0.2696131352311417      0.17917586079112183
0.23674005663223566       0.36300455496218453      -0.3042573250813765
0.24546372889002493       0.35974075056664         -0.3022611726215325
0.2739505393398901        0.35415599875441284      -0.288262235069682
0.2570040730737854        0.3603779189325124       -0.295839224472404
0.3364367422923324        0.3718387702751808       -0.25879591051300527
0.29717765192449297       0.36424084292852554      -0.27444680732096266
0.35169537111145277       0.40761636694219944      -0.2559247148409208
0.23010257411102858       0.3711825143615092       -0.3008670764215955
0.21643155097324493       0.37293295472371457      -0.3020599935642225
0.18847406720125703       0.3637665273641243       -0.30741960498433313
0.17029286884025868       0.35615364563215035      -0.3047631163175632
0.15805276728389664       0.3484149400368937       -0.30046245901846924
0.3067356036768459        0.29338382467286783      -0.26073906817190823
0.2892437226716356        0.28014264606947714      -0.26792607230191995
0.2827379944328842        0.2647162186430294       -0.26335784297730713
0.3849193197875687        0.3046590104010513       -0.2295869037678757
0.34327429493707723       0.2756319122570331       -0.23299484059007977
0.2607677135088471        0.2552367325994163       -0.2741044631222189
0.25060167697365154       0.25071474370107943      -0.2780021647529123
0.2729232484385142        0.2514917952493669       -0.2599423113284531
0.244170392476431         0.24172165452721145      -0.2706905581294494
0.14327035845651284       -0.14033299146938        0.11963973556919756
0.2637866469640133        -0.23647226642053626     0.0928095196778048
0.23459562797210798       -0.1887039253886204      0.08922078853348693
0.3874411455520093        -0.1706950536092843      0.03925307834718445
0.3291992851356419        -0.20482623055776478     0.06341370173926865
0.2034638625596796        -0.15908225209210436     0.09197984556143068
0.17922338898438664       -0.13516583487303557     0.09320813389666092
0.11324216229679362       -0.1433529509010828      0.14597893863076164
0.20556979473043754       -0.2579819794620929      0.12140495731124056
0.16955369630159572       -0.2517641948433987      0.13873448503976335
0.14023043729616913       -0.26256532156178936     0.1566046075493195
0.1201614520164766        -0.2736018408495243      0.16823853167978278
0.23254973548677105       -0.2957462226376356      0.11623201871862932
0.29991276907466186       -0.39577536659844065     0.1084259002228599
0.26499319191             -0.34660971922492456     0.11223206131025916
0.11272565485501476       -0.2883962693771437      0.17061485996636747
0.09739062867308204       -0.29099037393298277     0.17829946756190596
0.08251663680509505       -0.2898152872355947      0.18635783216926488
0.24632091348460392       0.3743641312778944       -0.2938935748670812
0.27059026936947367       0.37738495564164526      -0.2835407067316695
0.29814183065693456       0.4047815118096949       -0.2694335237938974
0.22880518894240365       0.38556872669278913      -0.2920718161088485
0.20027962922748302       0.3735123132898557       -0.3011992013884304
0.21241363038295957       0.38407556153010164      -0.2940698197249265
0.18976821443482694       0.37699660758371256      -0.2959285065505656
0.1811709298695935        0.3712831774204438       -0.2974035281402772
0.16222042877146045       0.35984042958131107      -0.29494088639385146
0.17001945836242166       0.37024513272963466      -0.29227012791953705
0.1466083399534814        0.3363230557922316       -0.29516576517090876
0.15231127774705228       0.36091404521151826      -0.2855478958129832
0.14846002170224887       0.34832508471136103      -0.2899064185985194
0.3086224705554468        0.2600910499606328       -0.2422161332519999
0.288713710836993         0.2490314533785482       -0.24651498105516528
0.38358762185704964       0.23713625023322107      -0.20028035267661531
0.33325226808218755       0.2394978951356157       -0.21706949036640633
0.2599090856216197        0.2382912986627725       -0.25516176672719765
0.2783878304608845        0.23468502844934142      -0.23981734402948218
0.2321235657873031        0.23727343479126559      -0.27151429762281404
0.21929611841747884       0.23746795457472925      -0.27800035926887606
0.2439235777450673        0.22323509095811397      -0.2443080256990222
0.12042933314013826       -0.12578886997572064     0.1270820826485979
0.15227430352370766       -0.11814862587929346     0.09918695307333779
0.28236686964988367       -0.17244407847577697     0.06463279535773182
0.24339318286609432       -0.1524259723071617      0.07036166545856076
0.3885506812765383        -0.10378202004450134     0.009321435916116392
0.3322939890658468        -0.14023194279731033     0.036798685795675405
0.22129232850488023       -0.1240944536026946      0.06563577865745923
0.18927723108168576       -0.10630842295550513     0.07047680475881239
0.17415004588081356       -0.2939116266373497      0.139784749324526
0.13396116086980686       -0.2941292847341021      0.1589776802102569
0.20186666421287228       -0.34436385971535427     0.13124125797636957
0.23337466483027436       -0.39692550938691984     0.12424258857316288
0.10936727862339375       -0.3104442217206251      0.16882035196235842
0.08408315320293781       -0.30838858274263414     0.18036975539032307
0.03575104855440549       -0.316168900303871       0.1942941645767709
0.18025135413398033       0.23762534963485038      -0.2725993067681149
0.2509466077371347        0.4063893301468314       -0.2796439941601569
0.21670594656817868       0.40436908311610903      -0.2827188476800914
0.19784812681817643       0.3900110367938019       -0.2885962824638922
0.17823092928064815       0.3868643292103224       -0.2846603811471182
0.1566949464624271        0.3739413878658496       -0.2807906912454015
0.16259060966492886       0.3842692977856455       -0.27844228075991373
0.14679944672016818       0.3703769896537503       -0.2752616529626813
0.1362545783372361        0.33391676444922463      -0.28204295833140275
0.13759301609867547       0.3475791436533884       -0.27794209632012473
0.14156510300316913       0.3601245077040845       -0.275989630660365
0.09573185442033744       -0.11605460557146094     0.13870575742696148
0.39045719181809024       -0.03604426196772082     -0.02704946767962566
0.3931122779103426        0.17041951713907308      -0.15889098136251745
0.39383702820615807       0.03355944669165557      -0.06947204462991702
0.39341995069484276       0.10225070964323807      -0.11420131142612289
0.30181223954868047       0.22365769390548063      -0.21829950584349772
0.3411879888499732        0.19730944079504523      -0.18547850489877724
0.2685808678586152        0.21095290105053882      -0.21940165808037085
0.2262837436266663        0.22348092697494432      -0.25099802706573654
0.23151334046205246       0.21030345160708389      -0.22970608976560886